 Entering Gaussian System, Link 0=g16
 Input=ts_cope_irc.gjf
 Output=ts_cope_irc.log
 Initial command:
 /share/apps/g16/l1.exe "/home/desnoow/tmp/Gau-10219.inp" -scrdir="/home/desnoow/tmp/"
 Entering Link 1 = /share/apps/g16/l1.exe PID=     10221.
  
 Copyright (c) 1988,1990,1992,1993,1995,1998,2003,2009,2016,
            Gaussian, Inc.  All Rights Reserved.
  
 This is part of the Gaussian(R) 16 program.  It is based on
 the Gaussian(R) 09 system (copyright 2009, Gaussian, Inc.),
 the Gaussian(R) 03 system (copyright 2003, Gaussian, Inc.),
 the Gaussian(R) 98 system (copyright 1998, Gaussian, Inc.),
 the Gaussian(R) 94 system (copyright 1995, Gaussian, Inc.),
 the Gaussian 92(TM) system (copyright 1992, Gaussian, Inc.),
 the Gaussian 90(TM) system (copyright 1990, Gaussian, Inc.),
 the Gaussian 88(TM) system (copyright 1988, Gaussian, Inc.),
 the Gaussian 86(TM) system (copyright 1986, Carnegie Mellon
 University), and the Gaussian 82(TM) system (copyright 1983,
 Carnegie Mellon University). Gaussian is a federally registered
 trademark of Gaussian, Inc.
  
 This software contains proprietary and confidential information,
 including trade secrets, belonging to Gaussian, Inc.
  
 This software is provided under written license and may be
 used, copied, transmitted, or stored only in accord with that
 written license.
  
 The following legend is applicable only to US Government
 contracts under FAR:
  
                    RESTRICTED RIGHTS LEGEND
  
 Use, reproduction and disclosure by the US Government is
 subject to restrictions as set forth in subparagraphs (a)
 and (c) of the Commercial Computer Software - Restricted
 Rights clause in FAR 52.227-19.
  
 Gaussian, Inc.
 340 Quinnipiac St., Bldg. 40, Wallingford CT 06492
  
  
 ---------------------------------------------------------------
 Warning -- This program may not be used in any manner that
 competes with the business of Gaussian, Inc. or will provide
 assistance to any competitor of Gaussian, Inc.  The licensee
 of this program is prohibited from giving any competitor of
 Gaussian, Inc. access to this program.  By using this program,
 the user acknowledges that Gaussian, Inc. is engaged in the
 business of creating and licensing software in the field of
 computational chemistry and represents and warrants to the
 licensee that it is not a competitor of Gaussian, Inc. and that
 it will not use this program in any manner prohibited above.
 ---------------------------------------------------------------
  

 Cite this work as:
 Gaussian 16, Revision A.03,
 M. J. Frisch, G. W. Trucks, H. B. Schlegel, G. E. Scuseria, 
 M. A. Robb, J. R. Cheeseman, G. Scalmani, V. Barone, 
 G. A. Petersson, H. Nakatsuji, X. Li, M. Caricato, A. V. Marenich, 
 J. Bloino, B. G. Janesko, R. Gomperts, B. Mennucci, H. P. Hratchian, 
 J. V. Ortiz, A. F. Izmaylov, J. L. Sonnenberg, D. Williams-Young, 
 F. Ding, F. Lipparini, F. Egidi, J. Goings, B. Peng, A. Petrone, 
 T. Henderson, D. Ranasinghe, V. G. Zakrzewski, J. Gao, N. Rega, 
 G. Zheng, W. Liang, M. Hada, M. Ehara, K. Toyota, R. Fukuda, 
 J. Hasegawa, M. Ishida, T. Nakajima, Y. Honda, O. Kitao, H. Nakai, 
 T. Vreven, K. Throssell, J. A. Montgomery, Jr., J. E. Peralta, 
 F. Ogliaro, M. J. Bearpark, J. J. Heyd, E. N. Brothers, K. N. Kudin, 
 V. N. Staroverov, T. A. Keith, R. Kobayashi, J. Normand, 
 K. Raghavachari, A. P. Rendell, J. C. Burant, S. S. Iyengar, 
 J. Tomasi, M. Cossi, J. M. Millam, M. Klene, C. Adamo, R. Cammi, 
 J. W. Ochterski, R. L. Martin, K. Morokuma, O. Farkas, 
 J. B. Foresman, and D. J. Fox, Gaussian, Inc., Wallingford CT, 2016.
 
 ******************************************
 Gaussian 16:  ES64L-G16RevA.03 25-Dec-2016
                16-Jun-2022 
 ******************************************
 %nprocshared=8
 Will use up to    8 processors via shared memory.
 %mem=16GB
 %oldchk=ts_cope.chk
 %chk=ts_cope_irc.chk
 Copying data from "ts_cope.chk" to current chk file "ts_cope_irc.chk"
 IOpt=  2 FromEx=T IUOpen= 4 IOptOp= 5 NList=   0 IFRang= 0 IUIn= 4 IUOut= 2.
 ----------------------------------------------------------------------
 # mpw1pw91/6-31g(d) nosymm guess=read geom=allcheck irc=(maxpoints=50,
 lqa,rcfc)
 ----------------------------------------------------------------------
 1/10=5,18=10,26=3,29=7,38=1,42=50,44=3,45=2,172=1/1,23;
 2/12=2,15=1,29=1,40=1/2;
 3/5=1,6=6,7=1,11=2,14=-4,25=1,30=1,71=2,74=-7,116=-2,140=1/1,2,3;
 4/5=1/1;
 5/5=2,38=6/2;
 8/6=4,10=90,11=11/1;
 11/6=1,8=1,9=11,15=111,16=1,31=1/1,2,10;
 10/6=1,13=1,31=1/2;
 6/7=2,8=2,9=2,10=2,28=1/1;
 7/10=1,25=1,30=1/1,2,3,16;
 1/18=10,26=3,42=50,44=3,45=2/23(2);
 2/15=1,29=1/2;
 99/5=20/99;
 2/15=1,29=1/2;
 3/5=1,6=6,7=1,11=2,14=-2,25=1,30=1,71=2,74=-7,140=1/1,2,3;
 4/5=5,16=3,69=1/1;
 5/5=2,38=5/2;
 8/6=4,10=90,11=11/1;
 11/6=1,8=1,9=11,15=111,16=1,31=1/1,2,10;
 10/6=1,13=1,31=1/2;
 7/10=1,25=1,30=1/1,2,3,16;
 1/18=10,26=3,42=50,44=3,45=2/23(-8);
 2/15=1,29=1/2;
 6/7=2,8=2,9=2,10=2,19=2,28=1/1;
 99/5=20,9=1/99;
 Structure from the checkpoint file:  "ts_cope_irc.chk"
 -----------------------
 ts1-c3 cation [4+5] mpw
 -----------------------
 Charge =  0 Multiplicity = 1
 Redundant internal coordinates found in file.  (old form).
 C,0,1.4088935611,0.0000062337,-0.2775912151
 H,0,1.793588294,0.000059989,-1.2960838595
 C,0,0.9038073976,1.2133779328,0.2346756075
 H,0,1.2773643391,2.1378908979,-0.2053827889
 H,0,0.8078818854,1.2942103191,1.3161727372
 C,0,-1.4088022103,-0.0001995625,0.2775680568
 H,0,-1.7934969051,-0.0002533884,1.2960606855
 C,0,-0.9037158957,-1.2135714885,-0.2346988431
 H,0,-1.277273122,-2.1380844236,0.2053594449
 H,0,-0.8077911135,-1.2944037322,-1.3161960932
 C,0,0.9039713334,-1.2134620454,0.2346092543
 H,0,0.8080573925,-1.294366669,1.3161020574
 H,0,1.2776534164,-2.1379003991,-0.2054997497
 C,0,-0.9038804717,1.2132684116,-0.2346325265
 H,0,-1.2775622004,2.1377068654,0.2054764441
 H,0,-0.8079657006,1.2941730591,-1.3161252117
 Recover connectivity data from disk.
 IRC-IRC-IRC-IRC-IRC-IRC-IRC-IRC-IRC-IRC-IRC-IRC-IRC-IRC-IRC-IRC-IRC-IRC
 ------------------------------------------------------------------------
 INPUT DATA FOR L123
 ------------------------------------------------------------------------
 GENERAL PARAMETERS:
 Follow reaction path in both directions.
 Maximum points per path      =  50
 Step size                    =   0.100 bohr
 Integration scheme           = LQA                                 
 Initial Hessian              = ReadFC from chk
 Hessian evaluation           = All updating
 Hessian updating method      = Bofill                              
 ------------------------------------------------------------------------
          ******** Start new reaction path calculation ********
 RCFC Option Requested - Data Read From Chk File:
 "ts_cope_irc.chk"
   Energy From Chk =   -234.4981570

 Supplied step size of   0.1000 bohr.
    Integration on MW PES will use step size of   0.3252 sqrt(amu)*bohr.
 Point Number:   0          Path Number:   1
 Calculating another point on the path.
 IRC-IRC-IRC-IRC-IRC-IRC-IRC-IRC-IRC-IRC-IRC-IRC-IRC-IRC-IRC-IRC-IRC-IRC
                          Input orientation:                          
 ---------------------------------------------------------------------
 Center     Atomic      Atomic             Coordinates (Angstroms)
 Number     Number       Type             X           Y           Z
 ---------------------------------------------------------------------
      1          6           0        1.408848   -0.003349   -0.277580
      2          1           0        1.793543   -0.001147   -1.296072
      3          6           0        0.879595    1.215282    0.230693
      4          1           0        1.269894    2.136132   -0.204538
      5          1           0        0.813158    1.295830    1.315861
      6          6           0       -1.408848   -0.003555    0.277580
      7          1           0       -1.793542   -0.001460    1.296072
      8          6           0       -0.927928   -1.211668   -0.238682
      9          1           0       -1.284743   -2.139844    0.206205
     10          1           0       -0.802515   -1.292784   -1.316508
     11          6           0        0.928092   -1.211555    0.238615
     12          1           0        0.802690   -1.292748    1.316437
     13          1           0        1.285033   -2.139659   -0.206322
     14          6           0       -0.879760    1.215175   -0.230626
     15          1           0       -1.270183    2.135949    0.204654
     16          1           0       -0.813333    1.295792   -1.315791
 ---------------------------------------------------------------------
                    Distance matrix (angstroms):
                    1          2          3          4          5
     1  C    0.000000
     2  H    1.088725   0.000000
     3  C    1.422502   2.155461   0.000000
     4  H    2.145232   2.456342   1.090744   0.000000
     5  H    2.140506   3.076605   1.090180   1.796198   0.000000
     6  C    2.871865   3.568149   2.593209   3.462131   2.775561
     7  H    3.568149   4.425652   3.124285   4.025639   2.911742
     8  C    2.630983   3.160671   3.062276   4.004915   3.425716
     9  H    3.471900   4.038156   3.992722   4.997884   4.175690
    10  H    2.762633   2.899700   3.393187   4.157982   4.029974
    11  C    1.399052   2.137606   2.427334   3.394145   2.731419
    12  H    2.137958   3.078186   2.734039   3.780060   2.588599
    13  H    2.141081   2.453441   3.407490   4.275817   3.787122
    14  C    2.593209   3.124286   1.818830   2.338772   2.294363
    15  H    3.462131   4.025639   2.338771   2.572825   2.506170
    16  H    2.775561   2.911742   2.294362   2.506170   3.093714
                    6          7          8          9         10
     6  C    0.000000
     7  H    1.088725   0.000000
     8  C    1.399052   2.137606   0.000000
     9  H    2.141081   2.453441   1.089381   0.000000
    10  H    2.137958   3.078185   1.088125   1.807957   0.000000
    11  C    2.630983   3.160671   1.916409   2.399877   2.328091
    12  H    2.762633   2.899700   2.328091   2.511486   3.083679
    13  H    3.471900   4.038156   2.399877   2.602677   2.511486
    14  C    1.422502   2.155460   2.427334   3.407490   2.734038
    15  H    2.145232   2.456342   3.394145   4.275817   3.780060
    16  H    2.140506   3.076605   2.731419   3.787122   2.588599
                   11         12         13         14         15
    11  C    0.000000
    12  H    1.088125   0.000000
    13  H    1.089381   1.807957   0.000000
    14  C    3.062276   3.393187   3.992722   0.000000
    15  H    4.004915   4.157983   4.997884   1.090744   0.000000
    16  H    3.425716   4.029974   4.175690   1.090180   1.796198
                   16
    16  H    0.000000
 Symmetry turned off by external request.
 Stoichiometry    C6H10
 Framework group  C1[X(C6H10)]
 Deg. of freedom    42
 Full point group                 C1      NOp   1
 Rotational constants (GHZ):           4.5578508           4.2972977           2.5468837
 Standard basis: 6-31G(d) (6D, 7F)
   110 basis functions,   208 primitive gaussians,   110 cartesian basis functions
    23 alpha electrons       23 beta electrons
       nuclear repulsion energy       233.4037861577 Hartrees.
 NAtoms=   16 NActive=   16 NUniq=   16 SFac= 1.00D+00 NAtFMM=   60 NAOKFM=F Big=F
 Integral buffers will be    131072 words long.
 Raffenetti 2 integral format.
 Two-electron integral symmetry is turned off.
 One-electron integrals computed using PRISM.
 NBasis=   110 RedAO= T EigKep=  4.31D-03  NBF=   110
 NBsUse=   110 1.00D-06 EigRej= -1.00D+00 NBFU=   110
 Initial guess from the checkpoint file:  "ts_cope_irc.chk"
 B after Tr=    -0.000086    0.000103    0.000022
         Rot=    1.000000    0.000000   -0.000000   -0.000000 Ang=   0.00 deg.
 Requested convergence on RMS density matrix=1.00D-08 within 128 cycles.
 Requested convergence on MAX density matrix=1.00D-06.
 Requested convergence on             energy=1.00D-06.
 No special actions if energy rises.
 SCF Done:  E(RmPW1PW91) =  -234.498705662     A.U. after   10 cycles
            NFock= 10  Conv=0.85D-08     -V/T= 2.0095
 DoSCS=F DFT=T ScalE2(SS,OS)=  1.000000  1.000000
 Range of M.O.s used for correlation:     1   110
 NBasis=   110 NAE=    23 NBE=    23 NFC=     0 NFV=     0
 NROrb=    110 NOA=    23 NOB=    23 NVA=    87 NVB=    87
 Symmetrizing basis deriv contribution to polar:
 IMax=3 JMax=2 DiffMx= 0.00D+00

 **********************************************************************

            Population analysis using the SCF density.

 **********************************************************************

 Alpha  occ. eigenvalues --  -10.24835 -10.24830 -10.24716 -10.24713 -10.22861
 Alpha  occ. eigenvalues --  -10.22860  -0.83986  -0.76855  -0.73108  -0.64519
 Alpha  occ. eigenvalues --   -0.57750  -0.55872  -0.48682  -0.45972  -0.44856
 Alpha  occ. eigenvalues --   -0.41038  -0.38893  -0.38146  -0.37075  -0.35151
 Alpha  occ. eigenvalues --   -0.34214  -0.29339  -0.19326
 Alpha virt. eigenvalues --   -0.01667   0.09905   0.12157   0.12543   0.14413
 Alpha virt. eigenvalues --    0.16345   0.16807   0.17714   0.20398   0.20676
 Alpha virt. eigenvalues --    0.21049   0.21461   0.23932   0.30905   0.32780
 Alpha virt. eigenvalues --    0.35495   0.35861   0.52371   0.52729   0.52866
 Alpha virt. eigenvalues --    0.54617   0.59673   0.60519   0.62801   0.63581
 Alpha virt. eigenvalues --    0.64049   0.66216   0.69603   0.77269   0.78565
 Alpha virt. eigenvalues --    0.81308   0.82434   0.82772   0.85807   0.88143
 Alpha virt. eigenvalues --    0.88505   0.90245   0.93183   0.95267   0.95988
 Alpha virt. eigenvalues --    0.96451   0.97690   1.00247   1.05281   1.17942
 Alpha virt. eigenvalues --    1.20644   1.24697   1.31396   1.39535   1.39848
 Alpha virt. eigenvalues --    1.44184   1.53202   1.58674   1.59947   1.71618
 Alpha virt. eigenvalues --    1.73199   1.75795   1.83643   1.85758   1.91180
 Alpha virt. eigenvalues --    1.94831   2.03623   2.06133   2.09793   2.12150
 Alpha virt. eigenvalues --    2.13200   2.24233   2.26941   2.28428   2.30268
 Alpha virt. eigenvalues --    2.30630   2.33548   2.37147   2.47853   2.51998
 Alpha virt. eigenvalues --    2.61839   2.64689   2.79414   2.80306   2.81758
 Alpha virt. eigenvalues --    2.84801   4.17671   4.26689   4.30663   4.46938
 Alpha virt. eigenvalues --    4.50015   4.53533
          Condensed to atoms (all electrons):
               1          2          3          4          5          6
     1  C    4.942358   0.388491   0.514293  -0.030851  -0.034309  -0.068777
     2  H    0.388491   0.566251  -0.050917  -0.006334   0.004882  -0.000739
     3  C    0.514293  -0.050917   5.164506   0.368621   0.383335  -0.051238
     4  H   -0.030851  -0.006334   0.368621   0.536567  -0.035913   0.003108
     5  H   -0.034309   0.004882   0.383335  -0.035913   0.541643  -0.009946
     6  C   -0.068777  -0.000739  -0.051238   0.003108  -0.009946   4.942358
     7  H   -0.000739   0.000025  -0.000754  -0.000071   0.001527   0.388491
     8  C   -0.049366  -0.001101  -0.022637   0.000575  -0.000179   0.556223
     9  H    0.002654  -0.000053   0.000510  -0.000000  -0.000040  -0.031431
    10  H   -0.010534   0.001443  -0.000128  -0.000055   0.000052  -0.034316
    11  C    0.556222  -0.050439  -0.055009   0.005354  -0.006204  -0.049366
    12  H   -0.034316   0.004954  -0.006472  -0.000140   0.004236  -0.010534
    13  H   -0.031431  -0.006688   0.005406  -0.000177  -0.000142   0.002654
    14  C   -0.051238  -0.000754   0.189053  -0.014997  -0.031653   0.514293
    15  H    0.003108  -0.000071  -0.014997  -0.001451  -0.002587  -0.030851
    16  H   -0.009946   0.001527  -0.031653  -0.002587   0.003040  -0.034309
               7          8          9         10         11         12
     1  C   -0.000739  -0.049366   0.002654  -0.010534   0.556222  -0.034316
     2  H    0.000025  -0.001101  -0.000053   0.001443  -0.050439   0.004954
     3  C   -0.000754  -0.022637   0.000510  -0.000128  -0.055009  -0.006472
     4  H   -0.000071   0.000575  -0.000000  -0.000055   0.005354  -0.000140
     5  H    0.001527  -0.000179  -0.000040   0.000052  -0.006204   0.004236
     6  C    0.388491   0.556223  -0.031431  -0.034316  -0.049366  -0.010534
     7  H    0.566251  -0.050439  -0.006688   0.004954  -0.001101   0.001443
     8  C   -0.050439   5.172401   0.367587   0.384826   0.131464  -0.027863
     9  H   -0.006688   0.367587   0.533619  -0.037086  -0.009238  -0.002288
    10  H    0.004954   0.384826  -0.037086   0.535747  -0.027863   0.002545
    11  C   -0.001101   0.131464  -0.009238  -0.027863   5.172401   0.384826
    12  H    0.001443  -0.027863  -0.002288   0.002545   0.384826   0.535747
    13  H   -0.000053  -0.009238  -0.001361  -0.002288   0.367587  -0.037086
    14  C   -0.050917  -0.055009   0.005406  -0.006472  -0.022637  -0.000128
    15  H   -0.006334   0.005354  -0.000177  -0.000140   0.000575  -0.000055
    16  H    0.004882  -0.006204  -0.000142   0.004236  -0.000179   0.000052
              13         14         15         16
     1  C   -0.031431  -0.051238   0.003108  -0.009946
     2  H   -0.006688  -0.000754  -0.000071   0.001527
     3  C    0.005406   0.189053  -0.014997  -0.031653
     4  H   -0.000177  -0.014997  -0.001451  -0.002587
     5  H   -0.000142  -0.031653  -0.002587   0.003040
     6  C    0.002654   0.514293  -0.030851  -0.034309
     7  H   -0.000053  -0.050917  -0.006334   0.004882
     8  C   -0.009238  -0.055009   0.005354  -0.006204
     9  H   -0.001361   0.005406  -0.000177  -0.000142
    10  H   -0.002288  -0.006472  -0.000140   0.004236
    11  C    0.367587  -0.022637   0.000575  -0.000179
    12  H   -0.037086  -0.000128  -0.000055   0.000052
    13  H    0.533619   0.000510  -0.000000  -0.000040
    14  C    0.000510   5.164506   0.368621   0.383335
    15  H   -0.000000   0.368621   0.536567  -0.035913
    16  H   -0.000040   0.383335  -0.035913   0.541643
 Mulliken charges:
               1
     1  C   -0.085620
     2  H    0.149521
     3  C   -0.391919
     4  H    0.178351
     5  H    0.182257
     6  C   -0.085620
     7  H    0.149521
     8  C   -0.396394
     9  H    0.178727
    10  H    0.185077
    11  C   -0.396394
    12  H    0.185077
    13  H    0.178727
    14  C   -0.391919
    15  H    0.178351
    16  H    0.182257
 Sum of Mulliken charges =  -0.00000
 Mulliken charges with hydrogens summed into heavy atoms:
               1
     1  C    0.063901
     3  C   -0.031311
     6  C    0.063901
     8  C   -0.032590
    11  C   -0.032590
    14  C   -0.031311
 Electronic spatial extent (au):  <R**2>=            556.0223
 Charge=             -0.0000 electrons
 Dipole moment (field-independent basis, Debye):
    X=              0.0000    Y=             -0.0215    Z=             -0.0000  Tot=              0.0215
 Quadrupole moment (field-independent basis, Debye-Ang):
   XX=            -42.6504   YY=            -35.0106   ZZ=            -36.0132
   XY=             -0.0005   XZ=             -1.7069   YZ=             -0.0001
 Traceless Quadrupole moment (field-independent basis, Debye-Ang):
   XX=             -4.7590   YY=              2.8808   ZZ=              1.8782
   XY=             -0.0005   XZ=             -1.7069   YZ=             -0.0001
 Octapole moment (field-independent basis, Debye-Ang**2):
  XXX=             -0.0001  YYY=             -0.5432  ZZZ=             -0.0000  XYY=              0.0001
  XXY=              0.3038  XXZ=             -0.0000  XZZ=              0.0000  YZZ=             -0.0911
  YYZ=             -0.0000  XYZ=              0.0710
 Hexadecapole moment (field-independent basis, Debye-Ang**3):
 XXXX=           -369.6509 YYYY=           -312.4821 ZZZZ=            -88.0614 XXXY=             -0.0030
 XXXZ=             -7.5274 YYYX=             -0.0004 YYYZ=             -0.0034 ZZZX=              0.9098
 ZZZY=             -0.0032 XXYY=           -107.1930 XXZZ=            -68.9505 YYZZ=            -69.2711
 XXYZ=             -0.0012 YYXZ=             -2.6397 ZZXY=             -0.0001
 N-N= 2.334037861577D+02 E-N=-1.008983911022D+03  KE= 2.322855739323D+02
  Exact polarizability:   0.000   0.000   0.000   0.000   0.000   0.000
 Approx polarizability: 139.928   0.003 107.448 -16.722  -0.000  75.575
 Calling FoFJK, ICntrl=      2127 FMM=F ISym2X=0 I1Cent= 0 IOpClX= 0 NMat=1 NMatS=1 NMatT=0.
 -------------------------------------------------------------------
 Center     Atomic                   Forces (Hartrees/Bohr)
 Number     Number              X              Y              Z
 -------------------------------------------------------------------
      1        6          -0.000171770   -0.000737646   -0.000115015
      2        1           0.000030267   -0.000023983   -0.000001277
      3        6          -0.005068946    0.000511123   -0.000649761
      4        1          -0.000147859   -0.000096594    0.000047475
      5        1           0.000011420    0.000005328   -0.000268322
      6        6           0.000171793   -0.000737646    0.000114993
      7        1          -0.000030271   -0.000024001    0.000001312
      8        6          -0.006137863    0.000262401   -0.001246861
      9        1          -0.000164710    0.000024593   -0.000021496
     10        1           0.000164115    0.000054024    0.000254983
     11        6           0.006137875    0.000263199    0.001246843
     12        1          -0.000164123    0.000054016   -0.000254979
     13        1           0.000164718    0.000024629    0.000021509
     14        6           0.005068959    0.000511842    0.000649750
     15        1           0.000147842   -0.000096579   -0.000047474
     16        1          -0.000011446    0.000005293    0.000268320
 -------------------------------------------------------------------
 Cartesian Forces:  Max     0.006137875 RMS     0.001664485
 IRC-IRC-IRC-IRC-IRC-IRC-IRC-IRC-IRC-IRC-IRC-IRC-IRC-IRC-IRC-IRC-IRC-IRC
 Pt  1 Step number   1 out of a maximum of  20
 Point Number:   1          Path Number:   1
   CHANGE IN THE REACTION COORDINATE =    0.32517
   NET REACTION COORDINATE UP TO THIS POINT =    0.32517
  # OF POINTS ALONG THE PATH =   1
  # OF STEPS =   1

 Calculating another point on the path.
 IRC-IRC-IRC-IRC-IRC-IRC-IRC-IRC-IRC-IRC-IRC-IRC-IRC-IRC-IRC-IRC-IRC-IRC
                          Input orientation:                          
 ---------------------------------------------------------------------
 Center     Atomic      Atomic             Coordinates (Angstroms)
 Number     Number       Type             X           Y           Z
 ---------------------------------------------------------------------
      1          6           0        1.408568   -0.006699   -0.277831
      2          1           0        1.794509   -0.002375   -1.295859
      3          6           0        0.857389    1.217150    0.227115
      4          1           0        1.263480    2.134343   -0.203338
      5          1           0        0.816836    1.297011    1.314824
      6          6           0       -1.408567   -0.006905    0.277831
      7          1           0       -1.794508   -0.002688    1.295860
      8          6           0       -0.953863   -1.210039   -0.243108
      9          1           0       -1.293923   -2.141655    0.206459
     10          1           0       -0.796087   -1.290924   -1.316217
     11          6           0        0.954026   -1.209924    0.243041
     12          1           0        0.796262   -1.290889    1.316146
     13          1           0        1.294213   -2.141468   -0.206577
     14          6           0       -0.857554    1.217047   -0.227049
     15          1           0       -1.263769    2.134161    0.203454
     16          1           0       -0.817012    1.296972   -1.314753
 ---------------------------------------------------------------------
                    Distance matrix (angstroms):
                    1          2          3          4          5
     1  C    0.000000
     2  H    1.088738   0.000000
     3  C    1.434077   2.164460   0.000000
     4  H    2.147245   2.457877   1.091532   0.000000
     5  H    2.141578   3.075698   1.091390   1.790372   0.000000
     6  C    2.871412   3.568784   2.575934   3.457788   2.779922
     7  H    3.568784   4.426969   3.108502   4.020670   2.916967
     8  C    2.651474   3.181240   3.064799   4.012865   3.442068
     9  H    3.477935   4.046220   3.988752   4.999240   4.184280
    10  H    2.754629   2.893435   3.377321   4.148828   4.027568
    11  C    1.387684   2.129038   2.429049   3.388088   2.729883
    12  H    2.136545   3.078853   2.734956   3.776154   2.587982
    13  H    2.139017   2.452051   3.414560   4.275923   3.790210
    14  C    2.575935   3.108502   1.774062   2.311013   2.277575
    15  H    3.457789   4.020671   2.311013   2.559779   2.502975
    16  H    2.779923   2.916968   2.277575   2.502975   3.095826
                    6          7          8          9         10
     6  C    0.000000
     7  H    1.088738   0.000000
     8  C    1.387684   2.129038   0.000000
     9  H    2.139017   2.452051   1.088880   0.000000
    10  H    2.136545   3.078853   1.087657   1.813870   0.000000
    11  C    2.651473   3.181240   1.968853   2.433668   2.345367
    12  H    2.754629   2.893434   2.345367   2.514772   3.076509
    13  H    3.477935   4.046220   2.433668   2.620887   2.514773
    14  C    1.434076   2.164460   2.429049   3.414560   2.734955
    15  H    2.147245   2.457877   3.388087   4.275923   3.776153
    16  H    2.141578   3.075698   2.729883   3.790210   2.587981
                   11         12         13         14         15
    11  C    0.000000
    12  H    1.087657   0.000000
    13  H    1.088880   1.813870   0.000000
    14  C    3.064799   3.377321   3.988752   0.000000
    15  H    4.012865   4.148828   4.999240   1.091532   0.000000
    16  H    3.442068   4.027568   4.184280   1.091390   1.790372
                   16
    16  H    0.000000
 Symmetry turned off by external request.
 Stoichiometry    C6H10
 Framework group  C1[X(C6H10)]
 Deg. of freedom    42
 Full point group                 C1      NOp   1
 Rotational constants (GHZ):           4.5570770           4.2883191           2.5436614
 Standard basis: 6-31G(d) (6D, 7F)
   110 basis functions,   208 primitive gaussians,   110 cartesian basis functions
    23 alpha electrons       23 beta electrons
       nuclear repulsion energy       233.3652708346 Hartrees.
 NAtoms=   16 NActive=   16 NUniq=   16 SFac= 1.00D+00 NAtFMM=   60 NAOKFM=F Big=F
 Integral buffers will be    131072 words long.
 Raffenetti 2 integral format.
 Two-electron integral symmetry is turned off.
 One-electron integrals computed using PRISM.
 NBasis=   110 RedAO= T EigKep=  4.31D-03  NBF=   110
 NBsUse=   110 1.00D-06 EigRej= -1.00D+00 NBFU=   110
 Initial guess from the checkpoint file:  "ts_cope_irc.chk"
 B after Tr=     0.000000   -0.000073   -0.000000
         Rot=    1.000000    0.000000    0.000038   -0.000000 Ang=   0.00 deg.
 ExpMin= 1.61D-01 ExpMax= 3.05D+03 ExpMxC= 4.57D+02 IAcc=2 IRadAn=         4 AccDes= 0.00D+00
 Harris functional with IExCor=  908 and IRadAn=       4 diagonalized for initial guess.
 HarFok:  IExCor=  908 AccDes= 0.00D+00 IRadAn=         4 IDoV= 1 UseB2=F ITyADJ=14
 ICtDFT=  3500011 ScaDFX=  1.000000  1.000000  1.000000  1.000000
 FoFCou: FMM=F IPFlag=           0 FMFlag=      100000 FMFlg1=           0
         NFxFlg=           0 DoJE=T BraDBF=F KetDBF=T FulRan=T
         wScrn=  0.000000 ICntrl=       500 IOpCl=  0 I1Cent=   200000004 NGrid=           0
         NMat0=    1 NMatS0=      1 NMatT0=    0 NMatD0=    1 NMtDS0=    0 NMtDT0=    0
 Symmetry not used in FoFCou.
 Requested convergence on RMS density matrix=1.00D-08 within 128 cycles.
 Requested convergence on MAX density matrix=1.00D-06.
 Requested convergence on             energy=1.00D-06.
 No special actions if energy rises.
 Integral accuracy reduced to 1.0D-05 until final iterations.
 Initial convergence to 1.0D-05 achieved.  Increase integral accuracy.
 SCF Done:  E(RmPW1PW91) =  -234.500284765     A.U. after   12 cycles
            NFock= 12  Conv=0.79D-08     -V/T= 2.0095
 DoSCS=F DFT=T ScalE2(SS,OS)=  1.000000  1.000000
 Range of M.O.s used for correlation:     1   110
 NBasis=   110 NAE=    23 NBE=    23 NFC=     0 NFV=     0
 NROrb=    110 NOA=    23 NOB=    23 NVA=    87 NVB=    87
 Symmetrizing basis deriv contribution to polar:
 IMax=3 JMax=2 DiffMx= 0.00D+00
 Calling FoFJK, ICntrl=      2127 FMM=F ISym2X=0 I1Cent= 0 IOpClX= 0 NMat=1 NMatS=1 NMatT=0.
 -------------------------------------------------------------------
 Center     Atomic                   Forces (Hartrees/Bohr)
 Number     Number              X              Y              Z
 -------------------------------------------------------------------
      1        6          -0.000357300   -0.001166954   -0.000318382
      2        1           0.000089227   -0.000028040    0.000008321
      3        6          -0.008630654    0.000882188   -0.001147297
      4        1          -0.000255283   -0.000168277    0.000094899
      5        1          -0.000034722   -0.000005915   -0.000427628
      6        6           0.000357343   -0.001166944    0.000318337
      7        1          -0.000089231   -0.000028046   -0.000008279
      8        6          -0.012184903    0.000320728   -0.002702463
      9        1          -0.000401600    0.000057916   -0.000078772
     10        1           0.000280692    0.000106951    0.000616043
     11        6           0.012184922    0.000322297    0.002702445
     12        1          -0.000280727    0.000106934   -0.000616037
     13        1           0.000401584    0.000057957    0.000078783
     14        6           0.008630635    0.000883378    0.001147295
     15        1           0.000255304   -0.000168232   -0.000094901
     16        1           0.000034714   -0.000005942    0.000427637
 -------------------------------------------------------------------
 Cartesian Forces:  Max     0.012184922 RMS     0.003129091
 IRC-IRC-IRC-IRC-IRC-IRC-IRC-IRC-IRC-IRC-IRC-IRC-IRC-IRC-IRC-IRC-IRC-IRC
 Pt  2 Step number   1 out of a maximum of  20
 Point Number:   2          Path Number:   1
   CHANGE IN THE REACTION COORDINATE =    0.32496
   NET REACTION COORDINATE UP TO THIS POINT =    0.65013
  # OF POINTS ALONG THE PATH =   2
  # OF STEPS =   1

 Calculating another point on the path.
 IRC-IRC-IRC-IRC-IRC-IRC-IRC-IRC-IRC-IRC-IRC-IRC-IRC-IRC-IRC-IRC-IRC-IRC
                          Input orientation:                          
 ---------------------------------------------------------------------
 Center     Atomic      Atomic             Coordinates (Angstroms)
 Number     Number       Type             X           Y           Z
 ---------------------------------------------------------------------
      1          6           0        1.408033   -0.009686   -0.278383
      2          1           0        1.796742   -0.003240   -1.295371
      3          6           0        0.837727    1.218960    0.224034
      4          1           0        1.257704    2.132726   -0.201766
      5          1           0        0.818263    1.297603    1.313022
      6          6           0       -1.408032   -0.009892    0.278383
      7          1           0       -1.796741   -0.003554    1.295371
      8          6           0       -0.981695   -1.208753   -0.248107
      9          1           0       -1.306062   -2.143203    0.205749
     10          1           0       -0.788795   -1.288805   -1.314843
     11          6           0        0.981858   -1.208634    0.248041
     12          1           0        0.788969   -1.288770    1.314773
     13          1           0        1.306353   -2.143015   -0.205866
     14          6           0       -0.837892    1.218858   -0.223968
     15          1           0       -1.257993    2.132545    0.201883
     16          1           0       -0.818439    1.297563   -1.312952
 ---------------------------------------------------------------------
                    Distance matrix (angstroms):
                    1          2          3          4          5
     1  C    0.000000
     2  H    1.088761   0.000000
     3  C    1.444730   2.173033   0.000000
     4  H    2.149046   2.459448   1.092088   0.000000
     5  H    2.142290   3.074627   1.091998   1.784692   0.000000
     6  C    2.870577   3.570339   2.560559   3.453622   2.781440
     7  H    3.570339   4.430018   3.095597   4.016808   2.920884
     8  C    2.673851   3.204643   3.070342   4.022753   3.458149
     9  H    3.486057   4.057117   3.987518   5.002253   4.192608
    10  H    2.745259   2.887569   3.361934   4.139320   4.022166
    11  C    1.377034   2.121115   2.431987   3.382766   2.728035
    12  H    2.134817   3.079131   2.735105   3.771769   2.586540
    13  H    2.136981   2.450743   3.421593   4.276020   3.792506
    14  C    2.560559   3.095597   1.734475   2.286300   2.260838
    15  H    3.453622   4.016809   2.286301   2.547875   2.498519
    16  H    2.781440   2.920885   2.260838   2.498519   3.094274
                    6          7          8          9         10
     6  C    0.000000
     7  H    1.088761   0.000000
     8  C    1.377034   2.121115   0.000000
     9  H    2.136981   2.450743   1.088299   0.000000
    10  H    2.134817   3.079131   1.086989   1.819275   0.000000
    11  C    2.673851   3.204642   2.025266   2.471799   2.363101
    12  H    2.745259   2.887569   2.363101   2.519751   3.066630
    13  H    3.486057   4.057116   2.471799   2.644643   2.519752
    14  C    1.444730   2.173033   2.431987   3.421593   2.735104
    15  H    2.149046   2.459448   3.382766   4.276020   3.771769
    16  H    2.142290   3.074627   2.728034   3.792506   2.586539
                   11         12         13         14         15
    11  C    0.000000
    12  H    1.086989   0.000000
    13  H    1.088299   1.819275   0.000000
    14  C    3.070342   3.361934   3.987518   0.000000
    15  H    4.022753   4.139321   5.002254   1.092088   0.000000
    16  H    3.458149   4.022166   4.192607   1.091998   1.784692
                   16
    16  H    0.000000
 Symmetry turned off by external request.
 Stoichiometry    C6H10
 Framework group  C1[X(C6H10)]
 Deg. of freedom    42
 Full point group                 C1      NOp   1
 Rotational constants (GHZ):           4.5555762           4.2701886           2.5371294
 Standard basis: 6-31G(d) (6D, 7F)
   110 basis functions,   208 primitive gaussians,   110 cartesian basis functions
    23 alpha electrons       23 beta electrons
       nuclear repulsion energy       233.2731227318 Hartrees.
 NAtoms=   16 NActive=   16 NUniq=   16 SFac= 1.00D+00 NAtFMM=   60 NAOKFM=F Big=F
 Integral buffers will be    131072 words long.
 Raffenetti 2 integral format.
 Two-electron integral symmetry is turned off.
 One-electron integrals computed using PRISM.
 NBasis=   110 RedAO= T EigKep=  4.29D-03  NBF=   110
 NBsUse=   110 1.00D-06 EigRej= -1.00D+00 NBFU=   110
 Initial guess from the checkpoint file:  "ts_cope_irc.chk"
 B after Tr=    -0.000000   -0.000054    0.000000
         Rot=    1.000000   -0.000000    0.000091    0.000000 Ang=   0.01 deg.
 ExpMin= 1.61D-01 ExpMax= 3.05D+03 ExpMxC= 4.57D+02 IAcc=2 IRadAn=         4 AccDes= 0.00D+00
 Harris functional with IExCor=  908 and IRadAn=       4 diagonalized for initial guess.
 HarFok:  IExCor=  908 AccDes= 0.00D+00 IRadAn=         4 IDoV= 1 UseB2=F ITyADJ=14
 ICtDFT=  3500011 ScaDFX=  1.000000  1.000000  1.000000  1.000000
 FoFCou: FMM=F IPFlag=           0 FMFlag=      100000 FMFlg1=           0
         NFxFlg=           0 DoJE=T BraDBF=F KetDBF=T FulRan=T
         wScrn=  0.000000 ICntrl=       500 IOpCl=  0 I1Cent=   200000004 NGrid=           0
         NMat0=    1 NMatS0=      1 NMatT0=    0 NMatD0=    1 NMtDS0=    0 NMtDT0=    0
 Symmetry not used in FoFCou.
 Requested convergence on RMS density matrix=1.00D-08 within 128 cycles.
 Requested convergence on MAX density matrix=1.00D-06.
 Requested convergence on             energy=1.00D-06.
 No special actions if energy rises.
 Integral accuracy reduced to 1.0D-05 until final iterations.
 Initial convergence to 1.0D-05 achieved.  Increase integral accuracy.
 SCF Done:  E(RmPW1PW91) =  -234.502727745     A.U. after   12 cycles
            NFock= 12  Conv=0.76D-08     -V/T= 2.0094
 DoSCS=F DFT=T ScalE2(SS,OS)=  1.000000  1.000000
 Range of M.O.s used for correlation:     1   110
 NBasis=   110 NAE=    23 NBE=    23 NFC=     0 NFV=     0
 NROrb=    110 NOA=    23 NOB=    23 NVA=    87 NVB=    87
 Symmetrizing basis deriv contribution to polar:
 IMax=3 JMax=2 DiffMx= 0.00D+00
 Calling FoFJK, ICntrl=      2127 FMM=F ISym2X=0 I1Cent= 0 IOpClX= 0 NMat=1 NMatS=1 NMatT=0.
 -------------------------------------------------------------------
 Center     Atomic                   Forces (Hartrees/Bohr)
 Number     Number              X              Y              Z
 -------------------------------------------------------------------
      1        6          -0.000445393   -0.001343460   -0.000541628
      2        1           0.000163027   -0.000001787    0.000028266
      3        6          -0.010571618    0.001000416   -0.001582811
      4        1          -0.000275983   -0.000135282    0.000106867
      5        1          -0.000053779   -0.000019420   -0.000259738
      6        6           0.000445541   -0.001343412    0.000541558
      7        1          -0.000163015   -0.000001806   -0.000028296
      8        6          -0.017366628    0.000345907   -0.003962947
      9        1          -0.000725879    0.000029420   -0.000132641
     10        1           0.000304527    0.000122390    0.000812564
     11        6           0.017366533    0.000347997    0.003963025
     12        1          -0.000304545    0.000122403   -0.000812585
     13        1           0.000725878    0.000029510    0.000132632
     14        6           0.010571518    0.001001780    0.001582880
     15        1           0.000276021   -0.000135238   -0.000106885
     16        1           0.000053794   -0.000019417    0.000259738
 -------------------------------------------------------------------
 Cartesian Forces:  Max     0.017366628 RMS     0.004264697
 IRC-IRC-IRC-IRC-IRC-IRC-IRC-IRC-IRC-IRC-IRC-IRC-IRC-IRC-IRC-IRC-IRC-IRC
 Pt  3 Step number   1 out of a maximum of  20
 Point Number:   3          Path Number:   1
   CHANGE IN THE REACTION COORDINATE =    0.32494
   NET REACTION COORDINATE UP TO THIS POINT =    0.97507
  # OF POINTS ALONG THE PATH =   3
  # OF STEPS =   1

 Calculating another point on the path.
 IRC-IRC-IRC-IRC-IRC-IRC-IRC-IRC-IRC-IRC-IRC-IRC-IRC-IRC-IRC-IRC-IRC-IRC
                          Input orientation:                          
 ---------------------------------------------------------------------
 Center     Atomic      Atomic             Coordinates (Angstroms)
 Number     Number       Type             X           Y           Z
 ---------------------------------------------------------------------
      1          6           0        1.407459   -0.012215   -0.279176
      2          1           0        1.800061   -0.003467   -1.294678
      3          6           0        0.820454    1.220614    0.221411
      4          1           0        1.252614    2.131394   -0.199881
      5          1           0        0.818602    1.297526    1.311321
      6          6           0       -1.407457   -0.012421    0.279175
      7          1           0       -1.800060   -0.003781    1.294678
      8          6           0       -1.010961   -1.207810   -0.253618
      9          1           0       -1.321590   -2.144420    0.204078
     10          1           0       -0.781927   -1.286808   -1.312537
     11          6           0        1.011124   -1.207687    0.253552
     12          1           0        0.782101   -1.286774    1.312466
     13          1           0        1.321880   -2.144230   -0.204196
     14          6           0       -0.820619    1.220515   -0.221344
     15          1           0       -1.252902    2.131213    0.199997
     16          1           0       -0.818777    1.297486   -1.311251
 ---------------------------------------------------------------------
                    Distance matrix (angstroms):
                    1          2          3          4          5
     1  C    0.000000
     2  H    1.088788   0.000000
     3  C    1.454314   2.180947   0.000000
     4  H    2.150657   2.460876   1.092597   0.000000
     5  H    2.142861   3.073610   1.092623   1.779729   0.000000
     6  C    2.869757   3.572851   2.547018   3.449842   2.781478
     7  H    3.572851   4.434596   3.085149   4.013913   2.924221
     8  C    2.697935   3.230495   3.078470   4.034469   3.474628
     9  H    3.496790   4.071199   3.988999   5.007224   4.201595
    10  H    2.736024   2.883391   3.347803   4.130552   4.015607
    11  C    1.367491   2.114139   2.435988   3.378369   2.726176
    12  H    2.132814   3.079013   2.734752   3.767286   2.584558
    13  H    2.135049   2.449628   3.428520   4.276187   3.794175
    14  C    2.547018   3.085149   1.699751   2.264609   2.245449
    15  H    3.449842   4.013913   2.264610   2.537226   2.494234
    16  H    2.781479   2.924221   2.245449   2.494235   3.091746
                    6          7          8          9         10
     6  C    0.000000
     7  H    1.088788   0.000000
     8  C    1.367491   2.114139   0.000000
     9  H    2.135049   2.449628   1.087757   0.000000
    10  H    2.132814   3.079013   1.086281   1.823967   0.000000
    11  C    2.697935   3.230494   2.084718   2.514254   2.382000
    12  H    2.736024   2.883391   2.382000   2.527765   3.055621
    13  H    3.496790   4.071199   2.514254   2.674813   2.527765
    14  C    1.454314   2.180947   2.435987   3.428520   2.734752
    15  H    2.150657   2.460876   3.378369   4.276187   3.767286
    16  H    2.142861   3.073610   2.726175   3.794175   2.584557
                   11         12         13         14         15
    11  C    0.000000
    12  H    1.086281   0.000000
    13  H    1.087757   1.823967   0.000000
    14  C    3.078470   3.347803   3.988999   0.000000
    15  H    4.034469   4.130552   5.007224   1.092597   0.000000
    16  H    3.474628   4.015607   4.201595   1.092623   1.779729
                   16
    16  H    0.000000
 Symmetry turned off by external request.
 Stoichiometry    C6H10
 Framework group  C1[X(C6H10)]
 Deg. of freedom    42
 Full point group                 C1      NOp   1
 Rotational constants (GHZ):           4.5533508           4.2431366           2.5274377
 Standard basis: 6-31G(d) (6D, 7F)
   110 basis functions,   208 primitive gaussians,   110 cartesian basis functions
    23 alpha electrons       23 beta electrons
       nuclear repulsion energy       233.1150230197 Hartrees.
 NAtoms=   16 NActive=   16 NUniq=   16 SFac= 1.00D+00 NAtFMM=   60 NAOKFM=F Big=F
 Integral buffers will be    131072 words long.
 Raffenetti 2 integral format.
 Two-electron integral symmetry is turned off.
 One-electron integrals computed using PRISM.
 NBasis=   110 RedAO= T EigKep=  4.28D-03  NBF=   110
 NBsUse=   110 1.00D-06 EigRej= -1.00D+00 NBFU=   110
 Initial guess from the checkpoint file:  "ts_cope_irc.chk"
 B after Tr=     0.000000   -0.000035   -0.000000
         Rot=    1.000000   -0.000000    0.000123    0.000000 Ang=   0.01 deg.
 ExpMin= 1.61D-01 ExpMax= 3.05D+03 ExpMxC= 4.57D+02 IAcc=2 IRadAn=         4 AccDes= 0.00D+00
 Harris functional with IExCor=  908 and IRadAn=       4 diagonalized for initial guess.
 HarFok:  IExCor=  908 AccDes= 0.00D+00 IRadAn=         4 IDoV= 1 UseB2=F ITyADJ=14
 ICtDFT=  3500011 ScaDFX=  1.000000  1.000000  1.000000  1.000000
 FoFCou: FMM=F IPFlag=           0 FMFlag=      100000 FMFlg1=           0
         NFxFlg=           0 DoJE=T BraDBF=F KetDBF=T FulRan=T
         wScrn=  0.000000 ICntrl=       500 IOpCl=  0 I1Cent=   200000004 NGrid=           0
         NMat0=    1 NMatS0=      1 NMatT0=    0 NMatD0=    1 NMtDS0=    0 NMtDT0=    0
 Symmetry not used in FoFCou.
 Requested convergence on RMS density matrix=1.00D-08 within 128 cycles.
 Requested convergence on MAX density matrix=1.00D-06.
 Requested convergence on             energy=1.00D-06.
 No special actions if energy rises.
 Integral accuracy reduced to 1.0D-05 until final iterations.
 Initial convergence to 1.0D-05 achieved.  Increase integral accuracy.
 SCF Done:  E(RmPW1PW91) =  -234.505799003     A.U. after   12 cycles
            NFock= 12  Conv=0.60D-08     -V/T= 2.0093
 DoSCS=F DFT=T ScalE2(SS,OS)=  1.000000  1.000000
 Range of M.O.s used for correlation:     1   110
 NBasis=   110 NAE=    23 NBE=    23 NFC=     0 NFV=     0
 NROrb=    110 NOA=    23 NOB=    23 NVA=    87 NVB=    87
 Symmetrizing basis deriv contribution to polar:
 IMax=3 JMax=2 DiffMx= 0.00D+00
 Calling FoFJK, ICntrl=      2127 FMM=F ISym2X=0 I1Cent= 0 IOpClX= 0 NMat=1 NMatS=1 NMatT=0.
 -------------------------------------------------------------------
 Center     Atomic                   Forces (Hartrees/Bohr)
 Number     Number              X              Y              Z
 -------------------------------------------------------------------
      1        6          -0.000445733   -0.001241590   -0.000792968
      2        1           0.000246062    0.000043727    0.000053090
      3        6          -0.010884607    0.000967564   -0.001672736
      4        1          -0.000280107   -0.000099996    0.000119436
      5        1          -0.000113234   -0.000049876   -0.000173096
      6        6           0.000445845   -0.001241512    0.000792876
      7        1          -0.000246069    0.000043702   -0.000053100
      8        6          -0.021196187    0.000271436   -0.004913594
      9        1          -0.001118507   -0.000002608   -0.000195815
     10        1           0.000256315    0.000109191    0.000900442
     11        6           0.021196152    0.000274063    0.004913626
     12        1          -0.000256341    0.000109215   -0.000900431
     13        1           0.001118503   -0.000002469    0.000195811
     14        6           0.010884518    0.000968958    0.001672828
     15        1           0.000280135   -0.000099945   -0.000119446
     16        1           0.000113257   -0.000049859    0.000173078
 -------------------------------------------------------------------
 Cartesian Forces:  Max     0.021196187 RMS     0.005001937
 IRC-IRC-IRC-IRC-IRC-IRC-IRC-IRC-IRC-IRC-IRC-IRC-IRC-IRC-IRC-IRC-IRC-IRC
 Pt  4 Step number   1 out of a maximum of  20
 Point Number:   4          Path Number:   1
   CHANGE IN THE REACTION COORDINATE =    0.32498
   NET REACTION COORDINATE UP TO THIS POINT =    1.30005
  # OF POINTS ALONG THE PATH =   4
  # OF STEPS =   1

 Calculating another point on the path.
 IRC-IRC-IRC-IRC-IRC-IRC-IRC-IRC-IRC-IRC-IRC-IRC-IRC-IRC-IRC-IRC-IRC-IRC
                          Input orientation:                          
 ---------------------------------------------------------------------
 Center     Atomic      Atomic             Coordinates (Angstroms)
 Number     Number       Type             X           Y           Z
 ---------------------------------------------------------------------
      1          6           0        1.406958   -0.014183   -0.280210
      2          1           0        1.804563   -0.002889   -1.293768
      3          6           0        0.805669    1.222024    0.219237
      4          1           0        1.247930    2.130400   -0.197757
      5          1           0        0.817698    1.296754    1.309702
      6          6           0       -1.406956   -0.014388    0.280210
      7          1           0       -1.804562   -0.003204    1.293768
      8          6           0       -1.041356   -1.207235   -0.259566
      9          1           0       -1.341544   -2.145142    0.201264
     10          1           0       -0.776319   -1.285143   -1.309466
     11          6           0        1.041519   -1.207108    0.259499
     12          1           0        0.776493   -1.285110    1.309395
     13          1           0        1.341835   -2.144949   -0.201382
     14          6           0       -0.805834    1.221927   -0.219170
     15          1           0       -1.248218    2.130220    0.197874
     16          1           0       -0.817873    1.296714   -1.309631
 ---------------------------------------------------------------------
                    Distance matrix (angstroms):
                    1          2          3          4          5
     1  C    0.000000
     2  H    1.088814   0.000000
     3  C    1.462601   2.188009   0.000000
     4  H    2.152051   2.462113   1.092990   0.000000
     5  H    2.143269   3.072626   1.093089   1.775528   0.000000
     6  C    2.869177   3.576505   2.535377   3.446300   2.779933
     7  H    3.576505   4.440847   3.077191   4.011811   2.926840
     8  C    2.723608   3.258723   3.089021   4.047772   3.491223
     9  H    3.510992   4.089298   3.993576   5.014464   4.211604
    10  H    2.727894   2.881905   3.335491   4.123035   4.008381
    11  C    1.359376   2.108321   2.440887   3.375003   2.724398
    12  H    2.130631   3.078551   2.734047   3.762907   2.582193
    13  H    2.133219   2.448641   3.435244   4.276382   3.795183
    14  C    2.535377   3.077191   1.670072   2.245825   2.231346
    15  H    3.446300   4.011811   2.245825   2.527307   2.489747
    16  H    2.779933   2.926840   2.231346   2.489747   3.088041
                    6          7          8          9         10
     6  C    0.000000
     7  H    1.088814   0.000000
     8  C    1.359376   2.108321   0.000000
     9  H    2.133219   2.448642   1.087266   0.000000
    10  H    2.130631   3.078551   1.085635   1.827945   0.000000
    11  C    2.723608   3.258723   2.146579   2.561697   2.402557
    12  H    2.727893   2.881904   2.402556   2.540411   3.044611
    13  H    3.510992   4.089298   2.561697   2.713420   2.540412
    14  C    1.462601   2.188010   2.440886   3.435244   2.734047
    15  H    2.152051   2.462113   3.375003   4.276382   3.762907
    16  H    2.143269   3.072626   2.724398   3.795183   2.582192
                   11         12         13         14         15
    11  C    0.000000
    12  H    1.085635   0.000000
    13  H    1.087266   1.827945   0.000000
    14  C    3.089021   3.335491   3.993576   0.000000
    15  H    4.047772   4.123035   5.014464   1.092990   0.000000
    16  H    3.491223   4.008381   4.211603   1.093089   1.775528
                   16
    16  H    0.000000
 Symmetry turned off by external request.
 Stoichiometry    C6H10
 Framework group  C1[X(C6H10)]
 Deg. of freedom    42
 Full point group                 C1      NOp   1
 Rotational constants (GHZ):           4.5505893           4.2073688           2.5146581
 Standard basis: 6-31G(d) (6D, 7F)
   110 basis functions,   208 primitive gaussians,   110 cartesian basis functions
    23 alpha electrons       23 beta electrons
       nuclear repulsion energy       232.8851690139 Hartrees.
 NAtoms=   16 NActive=   16 NUniq=   16 SFac= 1.00D+00 NAtFMM=   60 NAOKFM=F Big=F
 Integral buffers will be    131072 words long.
 Raffenetti 2 integral format.
 Two-electron integral symmetry is turned off.
 One-electron integrals computed using PRISM.
 NBasis=   110 RedAO= T EigKep=  4.27D-03  NBF=   110
 NBsUse=   110 1.00D-06 EigRej= -1.00D+00 NBFU=   110
 Initial guess from the checkpoint file:  "ts_cope_irc.chk"
 B after Tr=     0.000000   -0.000010   -0.000000
         Rot=    1.000000   -0.000000    0.000151    0.000000 Ang=   0.02 deg.
 ExpMin= 1.61D-01 ExpMax= 3.05D+03 ExpMxC= 4.57D+02 IAcc=2 IRadAn=         4 AccDes= 0.00D+00
 Harris functional with IExCor=  908 and IRadAn=       4 diagonalized for initial guess.
 HarFok:  IExCor=  908 AccDes= 0.00D+00 IRadAn=         4 IDoV= 1 UseB2=F ITyADJ=14
 ICtDFT=  3500011 ScaDFX=  1.000000  1.000000  1.000000  1.000000
 FoFCou: FMM=F IPFlag=           0 FMFlag=      100000 FMFlg1=           0
         NFxFlg=           0 DoJE=T BraDBF=F KetDBF=T FulRan=T
         wScrn=  0.000000 ICntrl=       500 IOpCl=  0 I1Cent=   200000004 NGrid=           0
         NMat0=    1 NMatS0=      1 NMatT0=    0 NMatD0=    1 NMtDS0=    0 NMtDT0=    0
 Symmetry not used in FoFCou.
 Requested convergence on RMS density matrix=1.00D-08 within 128 cycles.
 Requested convergence on MAX density matrix=1.00D-06.
 Requested convergence on             energy=1.00D-06.
 No special actions if energy rises.
 Integral accuracy reduced to 1.0D-05 until final iterations.
 Initial convergence to 1.0D-05 achieved.  Increase integral accuracy.
 SCF Done:  E(RmPW1PW91) =  -234.509245857     A.U. after   12 cycles
            NFock= 12  Conv=0.47D-08     -V/T= 2.0093
 DoSCS=F DFT=T ScalE2(SS,OS)=  1.000000  1.000000
 Range of M.O.s used for correlation:     1   110
 NBasis=   110 NAE=    23 NBE=    23 NFC=     0 NFV=     0
 NROrb=    110 NOA=    23 NOB=    23 NVA=    87 NVB=    87
 Symmetrizing basis deriv contribution to polar:
 IMax=3 JMax=2 DiffMx= 0.00D+00
 Calling FoFJK, ICntrl=      2127 FMM=F ISym2X=0 I1Cent= 0 IOpClX= 0 NMat=1 NMatS=1 NMatT=0.
 -------------------------------------------------------------------
 Center     Atomic                   Forces (Hartrees/Bohr)
 Number     Number              X              Y              Z
 -------------------------------------------------------------------
      1        6          -0.000309279   -0.000988649   -0.000990418
      2        1           0.000328332    0.000109957    0.000079975
      3        6          -0.009983440    0.000776039   -0.001551941
      4        1          -0.000240152   -0.000044845    0.000124222
      5        1          -0.000150781   -0.000088640   -0.000059896
      6        6           0.000309341   -0.000988643    0.000990305
      7        1          -0.000328360    0.000109922   -0.000079958
      8        6          -0.023412761    0.000213759   -0.005480160
      9        1          -0.001533631   -0.000038539   -0.000261565
     10        1           0.000116146    0.000058677    0.000912489
     11        6           0.023412763    0.000216677    0.005480194
     12        1          -0.000116160    0.000058717   -0.000912491
     13        1           0.001533627   -0.000038344    0.000261572
     14        6           0.009983393    0.000777326    0.001552002
     15        1           0.000240161   -0.000044797   -0.000124220
     16        1           0.000150801   -0.000088617    0.000059889
 -------------------------------------------------------------------
 Cartesian Forces:  Max     0.023412763 RMS     0.005348199
 IRC-IRC-IRC-IRC-IRC-IRC-IRC-IRC-IRC-IRC-IRC-IRC-IRC-IRC-IRC-IRC-IRC-IRC
 Pt  5 Step number   1 out of a maximum of  20
 Point Number:   5          Path Number:   1
   CHANGE IN THE REACTION COORDINATE =    0.32499
   NET REACTION COORDINATE UP TO THIS POINT =    1.62504
  # OF POINTS ALONG THE PATH =   5
  # OF STEPS =   1

 Calculating another point on the path.
 IRC-IRC-IRC-IRC-IRC-IRC-IRC-IRC-IRC-IRC-IRC-IRC-IRC-IRC-IRC-IRC-IRC-IRC
                          Input orientation:                          
 ---------------------------------------------------------------------
 Center     Atomic      Atomic             Coordinates (Angstroms)
 Number     Number       Type             X           Y           Z
 ---------------------------------------------------------------------
      1          6           0        1.406689   -0.015586   -0.281439
      2          1           0        1.810303   -0.001322   -1.292611
      3          6           0        0.793366    1.223120    0.217524
      4          1           0        1.243854    2.129735   -0.195365
      5          1           0        0.816043    1.295234    1.308410
      6          6           0       -1.406687   -0.015791    0.281438
      7          1           0       -1.810302   -0.001638    1.292611
      8          6           0       -1.072535   -1.206956   -0.265823
      9          1           0       -1.366640   -2.145227    0.197229
     10          1           0       -0.772959   -1.284136   -1.305791
     11          6           0        1.072698   -1.206826    0.265757
     12          1           0        0.773132   -1.284103    1.305721
     13          1           0        1.366931   -2.145032   -0.197347
     14          6           0       -0.793532    1.223025   -0.217457
     15          1           0       -1.244142    2.129556    0.195481
     16          1           0       -0.816218    1.295195   -1.308339
 ---------------------------------------------------------------------
                    Distance matrix (angstroms):
                    1          2          3          4          5
     1  C    0.000000
     2  H    1.088842   0.000000
     3  C    1.469530   2.194066   0.000000
     4  H    2.153212   2.462969   1.093328   0.000000
     5  H    2.143532   3.071631   1.093503   1.772216   0.000000
     6  C    2.869131   3.581461   2.525712   3.443253   2.777407
     7  H    3.581460   4.448837   3.071634   4.010573   2.929133
     8  C    2.750665   3.289164   3.101690   4.062528   3.507976
     9  H    3.529285   4.112046   4.001475   5.024352   4.223222
    10  H    2.722018   2.884272   3.325687   4.117657   4.001516
    11  C    1.352784   2.103761   2.446424   3.372620   2.722738
    12  H    2.128287   3.077755   2.733267   3.758873   2.579696
    13  H    2.131476   2.447789   3.441735   4.276538   3.795551
    14  C    2.525712   3.071634   1.645434   2.230147   2.219057
    15  H    3.443253   4.010573   2.230147   2.518509   2.485773
    16  H    2.777407   2.929133   2.219057   2.485773   3.084097
                    6          7          8          9         10
     6  C    0.000000
     7  H    1.088842   0.000000
     8  C    1.352784   2.103761   0.000000
     9  H    2.131477   2.447789   1.086862   0.000000
    10  H    2.128287   3.077755   1.085005   1.831122   0.000000
    11  C    2.750665   3.289164   2.210114   2.614511   2.425323
    12  H    2.722018   2.884272   2.425323   2.559085   3.034863
    13  H    3.529285   4.112046   2.614511   2.761901   2.559085
    14  C    1.469530   2.194066   2.446424   3.441735   2.733267
    15  H    2.153213   2.462969   3.372620   4.276538   3.758873
    16  H    2.143532   3.071632   2.722738   3.795551   2.579695
                   11         12         13         14         15
    11  C    0.000000
    12  H    1.085005   0.000000
    13  H    1.086862   1.831122   0.000000
    14  C    3.101690   3.325687   4.001475   0.000000
    15  H    4.062528   4.117657   5.024352   1.093328   0.000000
    16  H    3.507976   4.001515   4.223222   1.093503   1.772216
                   16
    16  H    0.000000
 Symmetry turned off by external request.
 Stoichiometry    C6H10
 Framework group  C1[X(C6H10)]
 Deg. of freedom    42
 Full point group                 C1      NOp   1
 Rotational constants (GHZ):           4.5476449           4.1632071           2.4989382
 Standard basis: 6-31G(d) (6D, 7F)
   110 basis functions,   208 primitive gaussians,   110 cartesian basis functions
    23 alpha electrons       23 beta electrons
       nuclear repulsion energy       232.5781815694 Hartrees.
 NAtoms=   16 NActive=   16 NUniq=   16 SFac= 1.00D+00 NAtFMM=   60 NAOKFM=F Big=F
 Integral buffers will be    131072 words long.
 Raffenetti 2 integral format.
 Two-electron integral symmetry is turned off.
 One-electron integrals computed using PRISM.
 NBasis=   110 RedAO= T EigKep=  4.27D-03  NBF=   110
 NBsUse=   110 1.00D-06 EigRej= -1.00D+00 NBFU=   110
 Initial guess from the checkpoint file:  "ts_cope_irc.chk"
 B after Tr=    -0.000000    0.000012    0.000000
         Rot=    1.000000   -0.000000    0.000170    0.000000 Ang=   0.02 deg.
 ExpMin= 1.61D-01 ExpMax= 3.05D+03 ExpMxC= 4.57D+02 IAcc=2 IRadAn=         4 AccDes= 0.00D+00
 Harris functional with IExCor=  908 and IRadAn=       4 diagonalized for initial guess.
 HarFok:  IExCor=  908 AccDes= 0.00D+00 IRadAn=         4 IDoV= 1 UseB2=F ITyADJ=14
 ICtDFT=  3500011 ScaDFX=  1.000000  1.000000  1.000000  1.000000
 FoFCou: FMM=F IPFlag=           0 FMFlag=      100000 FMFlg1=           0
         NFxFlg=           0 DoJE=T BraDBF=F KetDBF=T FulRan=T
         wScrn=  0.000000 ICntrl=       500 IOpCl=  0 I1Cent=   200000004 NGrid=           0
         NMat0=    1 NMatS0=      1 NMatT0=    0 NMatD0=    1 NMtDS0=    0 NMtDT0=    0
 Symmetry not used in FoFCou.
 Requested convergence on RMS density matrix=1.00D-08 within 128 cycles.
 Requested convergence on MAX density matrix=1.00D-06.
 Requested convergence on             energy=1.00D-06.
 No special actions if energy rises.
 Integral accuracy reduced to 1.0D-05 until final iterations.
 Initial convergence to 1.0D-05 achieved.  Increase integral accuracy.
 SCF Done:  E(RmPW1PW91) =  -234.512840688     A.U. after   12 cycles
            NFock= 12  Conv=0.35D-08     -V/T= 2.0092
 DoSCS=F DFT=T ScalE2(SS,OS)=  1.000000  1.000000
 Range of M.O.s used for correlation:     1   110
 NBasis=   110 NAE=    23 NBE=    23 NFC=     0 NFV=     0
 NROrb=    110 NOA=    23 NOB=    23 NVA=    87 NVB=    87
 Symmetrizing basis deriv contribution to polar:
 IMax=3 JMax=2 DiffMx= 0.00D+00
 Calling FoFJK, ICntrl=      2127 FMM=F ISym2X=0 I1Cent= 0 IOpClX= 0 NMat=1 NMatS=1 NMatT=0.
 -------------------------------------------------------------------
 Center     Atomic                   Forces (Hartrees/Bohr)
 Number     Number              X              Y              Z
 -------------------------------------------------------------------
      1        6          -0.000010254   -0.000693635   -0.001093784
      2        1           0.000397975    0.000180385    0.000107422
      3        6          -0.008370666    0.000508209   -0.001266050
      4        1          -0.000185911   -0.000007238    0.000131464
      5        1          -0.000170071   -0.000130094    0.000010626
      6        6           0.000010350   -0.000693720    0.001093693
      7        1          -0.000398006    0.000180337   -0.000107419
      8        6          -0.024121234    0.000219029   -0.005567455
      9        1          -0.001916708   -0.000058446   -0.000321890
     10        1          -0.000070878   -0.000020321    0.000799238
     11        6           0.024121189    0.000221971    0.005567487
     12        1           0.000070883   -0.000020264   -0.000799234
     13        1           0.001916711   -0.000058203    0.000321894
     14        6           0.008370608    0.000509261    0.001266096
     15        1           0.000185917   -0.000007206   -0.000131461
     16        1           0.000170095   -0.000130066   -0.000010626
 -------------------------------------------------------------------
 Cartesian Forces:  Max     0.024121234 RMS     0.005366604
 IRC-IRC-IRC-IRC-IRC-IRC-IRC-IRC-IRC-IRC-IRC-IRC-IRC-IRC-IRC-IRC-IRC-IRC
 Pt  6 Step number   1 out of a maximum of  20
 Point Number:   6          Path Number:   1
   CHANGE IN THE REACTION COORDINATE =    0.32499
   NET REACTION COORDINATE UP TO THIS POINT =    1.95004
  # OF POINTS ALONG THE PATH =   6
  # OF STEPS =   1

 Calculating another point on the path.
 IRC-IRC-IRC-IRC-IRC-IRC-IRC-IRC-IRC-IRC-IRC-IRC-IRC-IRC-IRC-IRC-IRC-IRC
                          Input orientation:                          
 ---------------------------------------------------------------------
 Center     Atomic      Atomic             Coordinates (Angstroms)
 Number     Number       Type             X           Y           Z
 ---------------------------------------------------------------------
      1          6           0        1.406849   -0.016470   -0.282790
      2          1           0        1.817308    0.001321   -1.291181
      3          6           0        0.783475    1.223847    0.216262
      4          1           0        1.240461    2.129314   -0.192703
      5          1           0        0.813896    1.292955    1.307476
      6          6           0       -1.406847   -0.016676    0.282790
      7          1           0       -1.817308    0.001005    1.291181
      8          6           0       -1.104141   -1.206862   -0.272205
      9          1           0       -1.397328   -2.144525    0.191965
     10          1           0       -0.772525   -1.284061   -1.301809
     11          6           0        1.104304   -1.206727    0.272139
     12          1           0        0.772698   -1.284028    1.301739
     13          1           0        1.397618   -2.144326   -0.192083
     14          6           0       -0.783640    1.223752   -0.216195
     15          1           0       -1.240749    2.129136    0.192819
     16          1           0       -0.814071    1.292916   -1.307405
 ---------------------------------------------------------------------
                    Distance matrix (angstroms):
                    1          2          3          4          5
     1  C    0.000000
     2  H    1.088873   0.000000
     3  C    1.475138   2.199037   0.000000
     4  H    2.154110   2.463282   1.093600   0.000000
     5  H    2.143626   3.070532   1.093823   1.769743   0.000000
     6  C    2.869977   3.587880   2.518101   3.440873   2.774313
     7  H    3.587880   4.458590   3.068365   4.010183   2.931320
     8  C    2.778887   3.321578   3.116093   4.078425   3.524676
     9  H    3.552101   4.139839   4.012782   5.037024   4.236761
    10  H    2.719349   2.891289   3.318927   4.115016   3.995762
    11  C    1.347662   2.100411   2.452294   3.371022   2.721153
    12  H    2.125931   3.076778   2.732730   3.755405   2.577319
    13  H    2.129808   2.447030   3.447971   4.276529   3.795301
    14  C    2.518100   3.068365   1.625690   2.217562   2.208729
    15  H    3.440873   4.010183   2.217562   2.510982   2.482584
    16  H    2.774313   2.931320   2.208729   2.482584   3.080240
                    6          7          8          9         10
     6  C    0.000000
     7  H    1.088873   0.000000
     8  C    1.347662   2.100411   0.000000
     9  H    2.129808   2.447030   1.086566   0.000000
    10  H    2.125931   3.076778   1.084442   1.833614   0.000000
    11  C    2.778887   3.321578   2.274541   2.672836   2.450669
    12  H    2.719348   2.891289   2.450669   2.584775   3.027569
    13  H    3.552101   4.139839   2.672837   2.821209   2.584776
    14  C    1.475139   2.199037   2.452294   3.447971   2.732730
    15  H    2.154110   2.463283   3.371022   4.276529   3.755405
    16  H    2.143626   3.070532   2.721153   3.795301   2.577319
                   11         12         13         14         15
    11  C    0.000000
    12  H    1.084441   0.000000
    13  H    1.086566   1.833614   0.000000
    14  C    3.116093   3.318927   4.012782   0.000000
    15  H    4.078425   4.115016   5.037024   1.093600   0.000000
    16  H    3.524676   3.995761   4.236761   1.093823   1.769743
                   16
    16  H    0.000000
 Symmetry turned off by external request.
 Stoichiometry    C6H10
 Framework group  C1[X(C6H10)]
 Deg. of freedom    42
 Full point group                 C1      NOp   1
 Rotational constants (GHZ):           4.5450384           4.1113039           2.4805342
 Standard basis: 6-31G(d) (6D, 7F)
   110 basis functions,   208 primitive gaussians,   110 cartesian basis functions
    23 alpha electrons       23 beta electrons
       nuclear repulsion energy       232.1950077263 Hartrees.
 NAtoms=   16 NActive=   16 NUniq=   16 SFac= 1.00D+00 NAtFMM=   60 NAOKFM=F Big=F
 Integral buffers will be    131072 words long.
 Raffenetti 2 integral format.
 Two-electron integral symmetry is turned off.
 One-electron integrals computed using PRISM.
 NBasis=   110 RedAO= T EigKep=  4.28D-03  NBF=   110
 NBsUse=   110 1.00D-06 EigRej= -1.00D+00 NBFU=   110
 Initial guess from the checkpoint file:  "ts_cope_irc.chk"
 B after Tr=    -0.000000    0.000029    0.000000
         Rot=    1.000000   -0.000000    0.000182    0.000000 Ang=  -0.02 deg.
 ExpMin= 1.61D-01 ExpMax= 3.05D+03 ExpMxC= 4.57D+02 IAcc=2 IRadAn=         4 AccDes= 0.00D+00
 Harris functional with IExCor=  908 and IRadAn=       4 diagonalized for initial guess.
 HarFok:  IExCor=  908 AccDes= 0.00D+00 IRadAn=         4 IDoV= 1 UseB2=F ITyADJ=14
 ICtDFT=  3500011 ScaDFX=  1.000000  1.000000  1.000000  1.000000
 FoFCou: FMM=F IPFlag=           0 FMFlag=      100000 FMFlg1=           0
         NFxFlg=           0 DoJE=T BraDBF=F KetDBF=T FulRan=T
         wScrn=  0.000000 ICntrl=       500 IOpCl=  0 I1Cent=   200000004 NGrid=           0
         NMat0=    1 NMatS0=      1 NMatT0=    0 NMatD0=    1 NMtDS0=    0 NMtDT0=    0
 Symmetry not used in FoFCou.
 Requested convergence on RMS density matrix=1.00D-08 within 128 cycles.
 Requested convergence on MAX density matrix=1.00D-06.
 Requested convergence on             energy=1.00D-06.
 No special actions if energy rises.
 Integral accuracy reduced to 1.0D-05 until final iterations.
 Initial convergence to 1.0D-05 achieved.  Increase integral accuracy.
 SCF Done:  E(RmPW1PW91) =  -234.516406034     A.U. after   11 cycles
            NFock= 11  Conv=0.86D-08     -V/T= 2.0092
 DoSCS=F DFT=T ScalE2(SS,OS)=  1.000000  1.000000
 Range of M.O.s used for correlation:     1   110
 NBasis=   110 NAE=    23 NBE=    23 NFC=     0 NFV=     0
 NROrb=    110 NOA=    23 NOB=    23 NVA=    87 NVB=    87
 Symmetrizing basis deriv contribution to polar:
 IMax=3 JMax=2 DiffMx= 0.00D+00
 Calling FoFJK, ICntrl=      2127 FMM=F ISym2X=0 I1Cent= 0 IOpClX= 0 NMat=1 NMatS=1 NMatT=0.
 -------------------------------------------------------------------
 Center     Atomic                   Forces (Hartrees/Bohr)
 Number     Number              X              Y              Z
 -------------------------------------------------------------------
      1        6           0.000438446   -0.000451045   -0.001075995
      2        1           0.000450897    0.000240670    0.000134393
      3        6          -0.006591602    0.000202592   -0.000932339
      4        1          -0.000121335    0.000017313    0.000138867
      5        1          -0.000156819   -0.000163328    0.000067918
      6        6          -0.000438326   -0.000451162    0.001075953
      7        1          -0.000450931    0.000240616   -0.000134387
      8        6          -0.023618634    0.000311208   -0.005224954
      9        1          -0.002210274   -0.000048131   -0.000372346
     10        1          -0.000272602   -0.000111236    0.000596944
     11        6           0.023618542    0.000314091    0.005224946
     12        1           0.000272624   -0.000111170   -0.000596930
     13        1           0.002210277   -0.000047856    0.000372345
     14        6           0.006591567    0.000203403    0.000932370
     15        1           0.000121331    0.000017335   -0.000138862
     16        1           0.000156841   -0.000163300   -0.000067925
 -------------------------------------------------------------------
 Cartesian Forces:  Max     0.023618634 RMS     0.005151809
 IRC-IRC-IRC-IRC-IRC-IRC-IRC-IRC-IRC-IRC-IRC-IRC-IRC-IRC-IRC-IRC-IRC-IRC
 Pt  7 Step number   1 out of a maximum of  20
 Point Number:   7          Path Number:   1
   CHANGE IN THE REACTION COORDINATE =    0.32500
   NET REACTION COORDINATE UP TO THIS POINT =    2.27504
  # OF POINTS ALONG THE PATH =   7
  # OF STEPS =   1

 Calculating another point on the path.
 IRC-IRC-IRC-IRC-IRC-IRC-IRC-IRC-IRC-IRC-IRC-IRC-IRC-IRC-IRC-IRC-IRC-IRC
                          Input orientation:                          
 ---------------------------------------------------------------------
 Center     Atomic      Atomic             Coordinates (Angstroms)
 Number     Number       Type             X           Y           Z
 ---------------------------------------------------------------------
      1          6           0        1.407660   -0.016941   -0.284160
      2          1           0        1.825551    0.005018   -1.289447
      3          6           0        0.775686    1.224166    0.215410
      4          1           0        1.237880    2.129005   -0.189757
      5          1           0        0.811670    1.289972    1.306960
      6          6           0       -1.407657   -0.017147    0.284159
      7          1           0       -1.825552    0.004701    1.289448
      8          6           0       -1.135826   -1.206792   -0.278495
      9          1           0       -1.433411   -2.142910    0.185624
     10          1           0       -0.775503   -1.285132   -1.297806
     11          6           0        1.135989   -1.206654    0.278429
     12          1           0        0.775677   -1.285098    1.297736
     13          1           0        1.433701   -2.142706   -0.185741
     14          6           0       -0.775851    1.224073   -0.215343
     15          1           0       -1.238168    2.128827    0.189873
     16          1           0       -0.811844    1.289934   -1.306890
 ---------------------------------------------------------------------
                    Distance matrix (angstroms):
                    1          2          3          4          5
     1  C    0.000000
     2  H    1.088907   0.000000
     3  C    1.479631   2.202983   0.000000
     4  H    2.154720   2.462924   1.093854   0.000000
     5  H    2.143569   3.069266   1.094124   1.767991   0.000000
     6  C    2.872107   3.595882   2.512483   3.439394   2.771299
     7  H    3.595882   4.470039   3.067097   4.010651   2.933797
     8  C    2.808042   3.355632   3.131673   4.095106   3.541221
     9  H    3.579403   4.172561   4.027182   5.052322   4.252349
    10  H    2.720660   2.903454   3.315507   4.115558   3.991878
    11  C    1.343774   2.098066   2.458185   3.369896   2.719596
    12  H    2.123681   3.075737   2.732734   3.752648   2.575339
    13  H    2.128202   2.446311   3.453945   4.276199   3.794518
    14  C    2.512483   3.067098   1.610222   2.207865   2.200448
    15  H    3.439394   4.010651   2.207865   2.504981   2.480604
    16  H    2.771299   2.933798   2.200448   2.480604   3.077013
                    6          7          8          9         10
     6  C    0.000000
     7  H    1.088907   0.000000
     8  C    1.343774   2.098066   0.000000
     9  H    2.128202   2.446311   1.086407   0.000000
    10  H    2.123681   3.075736   1.083958   1.835536   0.000000
    11  C    2.808042   3.355632   2.339084   2.736239   2.478807
    12  H    2.720659   2.903453   2.478806   2.617767   3.023739
    13  H    3.579403   4.172561   2.736240   2.891062   2.617767
    14  C    1.479631   2.202983   2.458185   3.453945   2.732734
    15  H    2.154720   2.462924   3.369896   4.276199   3.752648
    16  H    2.143569   3.069266   2.719596   3.794517   2.575339
                   11         12         13         14         15
    11  C    0.000000
    12  H    1.083958   0.000000
    13  H    1.086407   1.835536   0.000000
    14  C    3.131673   3.315507   4.027182   0.000000
    15  H    4.095106   4.115558   5.052322   1.093854   0.000000
    16  H    3.541221   3.991878   4.252348   1.094124   1.767991
                   16
    16  H    0.000000
 Symmetry turned off by external request.
 Stoichiometry    C6H10
 Framework group  C1[X(C6H10)]
 Deg. of freedom    42
 Full point group                 C1      NOp   1
 Rotational constants (GHZ):           4.5434041           4.0527683           2.4598603
 Standard basis: 6-31G(d) (6D, 7F)
   110 basis functions,   208 primitive gaussians,   110 cartesian basis functions
    23 alpha electrons       23 beta electrons
       nuclear repulsion energy       231.7439416986 Hartrees.
 NAtoms=   16 NActive=   16 NUniq=   16 SFac= 1.00D+00 NAtFMM=   60 NAOKFM=F Big=F
 Integral buffers will be    131072 words long.
 Raffenetti 2 integral format.
 Two-electron integral symmetry is turned off.
 One-electron integrals computed using PRISM.
 NBasis=   110 RedAO= T EigKep=  4.30D-03  NBF=   110
 NBsUse=   110 1.00D-06 EigRej= -1.00D+00 NBFU=   110
 Initial guess from the checkpoint file:  "ts_cope_irc.chk"
 B after Tr=    -0.000000    0.000039    0.000000
         Rot=    1.000000   -0.000000    0.000188    0.000000 Ang=  -0.02 deg.
 ExpMin= 1.61D-01 ExpMax= 3.05D+03 ExpMxC= 4.57D+02 IAcc=2 IRadAn=         4 AccDes= 0.00D+00
 Harris functional with IExCor=  908 and IRadAn=       4 diagonalized for initial guess.
 HarFok:  IExCor=  908 AccDes= 0.00D+00 IRadAn=         4 IDoV= 1 UseB2=F ITyADJ=14
 ICtDFT=  3500011 ScaDFX=  1.000000  1.000000  1.000000  1.000000
 FoFCou: FMM=F IPFlag=           0 FMFlag=      100000 FMFlg1=           0
         NFxFlg=           0 DoJE=T BraDBF=F KetDBF=T FulRan=T
         wScrn=  0.000000 ICntrl=       500 IOpCl=  0 I1Cent=   200000004 NGrid=           0
         NMat0=    1 NMatS0=      1 NMatT0=    0 NMatD0=    1 NMtDS0=    0 NMtDT0=    0
 Symmetry not used in FoFCou.
 Requested convergence on RMS density matrix=1.00D-08 within 128 cycles.
 Requested convergence on MAX density matrix=1.00D-06.
 Requested convergence on             energy=1.00D-06.
 No special actions if energy rises.
 Integral accuracy reduced to 1.0D-05 until final iterations.
 Initial convergence to 1.0D-05 achieved.  Increase integral accuracy.
 SCF Done:  E(RmPW1PW91) =  -234.519822555     A.U. after   11 cycles
            NFock= 11  Conv=0.71D-08     -V/T= 2.0092
 DoSCS=F DFT=T ScalE2(SS,OS)=  1.000000  1.000000
 Range of M.O.s used for correlation:     1   110
 NBasis=   110 NAE=    23 NBE=    23 NFC=     0 NFV=     0
 NROrb=    110 NOA=    23 NOB=    23 NVA=    87 NVB=    87
 Symmetrizing basis deriv contribution to polar:
 IMax=3 JMax=2 DiffMx= 0.00D+00
 Calling FoFJK, ICntrl=      2127 FMM=F ISym2X=0 I1Cent= 0 IOpClX= 0 NMat=1 NMatS=1 NMatT=0.
 -------------------------------------------------------------------
 Center     Atomic                   Forces (Hartrees/Bohr)
 Number     Number              X              Y              Z
 -------------------------------------------------------------------
      1        6           0.000960896   -0.000252561   -0.000964243
      2        1           0.000485815    0.000280148    0.000157921
      3        6          -0.004964979   -0.000092296   -0.000599503
      4        1          -0.000077388    0.000014080    0.000149372
      5        1          -0.000136126   -0.000185917    0.000077022
      6        6          -0.000960813   -0.000252728    0.000964235
      7        1          -0.000485852    0.000280091   -0.000157906
      8        6          -0.022335103    0.000413329   -0.004567943
      9        1          -0.002378944    0.000012666   -0.000414449
     10        1          -0.000442569   -0.000191235    0.000335909
     11        6           0.022335008    0.000416097    0.004567925
     12        1           0.000442602   -0.000191162   -0.000335902
     13        1           0.002378939    0.000012961    0.000414448
     14        6           0.004964979   -0.000091673    0.000599508
     15        1           0.000077386    0.000014094   -0.000149368
     16        1           0.000136150   -0.000185894   -0.000077026
 -------------------------------------------------------------------
 Cartesian Forces:  Max     0.022335103 RMS     0.004802048
 IRC-IRC-IRC-IRC-IRC-IRC-IRC-IRC-IRC-IRC-IRC-IRC-IRC-IRC-IRC-IRC-IRC-IRC
 Reaction path inflection point has been passed.
   Previous lowest Hessian eigenvalue=   -0.0003766039
   Current lowest Hessian eigenvalue =    0.0004894432
 Pt  8 Step number   1 out of a maximum of  20
 Point Number:   8          Path Number:   1
   CHANGE IN THE REACTION COORDINATE =    0.32501
   NET REACTION COORDINATE UP TO THIS POINT =    2.60005
  # OF POINTS ALONG THE PATH =   8
  # OF STEPS =   1

 Calculating another point on the path.
[...]
 IMax=3 JMax=2 DiffMx= 0.00D+00
 Calling FoFJK, ICntrl=      2127 FMM=F ISym2X=0 I1Cent= 0 IOpClX= 0 NMat=1 NMatS=1 NMatT=0.
 -------------------------------------------------------------------
 Center     Atomic                   Forces (Hartrees/Bohr)
 Number     Number              X              Y              Z
 -------------------------------------------------------------------
      1        6           0.001587127    0.002206693    0.005091105
      2        1          -0.000204731    0.000256210   -0.001772142
      3        6          -0.000469904   -0.003452554    0.000463580
      4        1           0.000683534    0.001228198   -0.000763456
      5        1          -0.000713953   -0.000079000   -0.002283180
      6        6          -0.000939963    0.001220061   -0.002718886
      7        1           0.000501031   -0.000199130    0.003838317
      8        6          -0.000630896    0.000361101    0.000024967
      9        1           0.000279493    0.000173617   -0.000004670
     10        1           0.000243123    0.000143052    0.000112630
     11        6          -0.000502571   -0.000389620   -0.000956052
     12        1           0.000108755    0.000252601    0.000028085
     13        1          -0.000037550   -0.000118319    0.000070242
     14        6          -0.000709334   -0.001376752   -0.002562614
     15        1           0.000520210   -0.000827583    0.000320348
     16        1           0.000285629    0.000601425    0.001111725
 -------------------------------------------------------------------
 Cartesian Forces:  Max     0.005091105 RMS     0.001412995
 IRC-IRC-IRC-IRC-IRC-IRC-IRC-IRC-IRC-IRC-IRC-IRC-IRC-IRC-IRC-IRC-IRC-IRC
 Pt100 Step number   1 out of a maximum of  20
 Point Number:  50          Path Number:   2
   CHANGE IN THE REACTION COORDINATE =    0.30075
   NET REACTION COORDINATE UP TO THIS POINT =   15.38043
  # OF POINTS ALONG THE PATH = 100
  # OF STEPS =   1

 Maximum number of steps reached.
 Calculation of REVERSE path complete.
 Reaction path calculation complete.
 
 Energies reported relative to the TS energy of        -234.498157
 --------------------------------------------------------------------------
    Summary of reaction path following
 --------------------------------------------------------------------------
                        Energy    RxCoord
   1                   -0.05036 -15.38043
   2                   -0.05036 -15.07968
   3                   -0.05028 -14.78451
   4                   -0.05013 -14.50181
   5                   -0.05007 -14.21573
   6                   -0.05004 -13.92610
   7                   -0.05004 -13.62172
   8                   -0.04992 -13.32706
   9                   -0.04978 -13.03871
  10                   -0.04972 -12.74141
  11                   -0.04954 -12.46906
  12                   -0.04902 -12.23189
  13                   -0.04852 -11.95352
  14                   -0.04904 -11.65630
  15                   -0.04938 -11.35376
  16                   -0.04930 -11.04618
  17                   -0.04917 -10.73481
  18                   -0.04901 -10.42584
  19                   -0.04884 -10.11438
  20                   -0.04864  -9.80107
  21                   -0.04833  -9.50162
  22                   -0.04807  -9.19742
  23                   -0.04761  -8.91382
  24                   -0.04737  -8.62594
  25                   -0.04706  -8.33139
  26                   -0.04696  -8.02270
  27                   -0.04658  -7.70596
  28                   -0.04605  -7.38535
  29                   -0.04536  -7.07070
  30                   -0.04408  -6.78000
  31                   -0.04409  -6.46466
  32                   -0.04312  -6.15391
  33                   -0.04221  -5.84568
  34                   -0.04149  -5.52463
  35                   -0.04029  -5.20035
  36                   -0.03879  -4.87536
  37                   -0.03708  -4.55034
  38                   -0.03513  -4.22528
  39                   -0.03295  -3.90024
  40                   -0.03051  -3.57518
  41                   -0.02782  -3.25013
  42                   -0.02487  -2.92508
  43                   -0.02167  -2.60005
  44                   -0.01825  -2.27504
  45                   -0.01468  -1.95004
  46                   -0.01109  -1.62504
  47                   -0.00764  -1.30005
  48                   -0.00457  -0.97507
  49                   -0.00213  -0.65013
  50                   -0.00055  -0.32517
  51                    0.00000   0.00000
  52                   -0.00055   0.32517
  53                   -0.00213   0.65013
  54                   -0.00457   0.97507
  55                   -0.00764   1.30005
  56                   -0.01109   1.62504
  57                   -0.01468   1.95004
  58                   -0.01825   2.27504
  59                   -0.02167   2.60005
  60                   -0.02487   2.92508
  61                   -0.02782   3.25013
  62                   -0.03051   3.57518
  63                   -0.03295   3.90024
  64                   -0.03513   4.22528
  65                   -0.03708   4.55034
  66                   -0.03879   4.87536
  67                   -0.04029   5.20035
  68                   -0.04149   5.52463
  69                   -0.04221   5.84569
  70                   -0.04312   6.15391
  71                   -0.04409   6.46466
  72                   -0.04408   6.78000
  73                   -0.04536   7.07070
  74                   -0.04605   7.38535
  75                   -0.04658   7.70596
  76                   -0.04696   8.02270
  77                   -0.04706   8.33138
  78                   -0.04737   8.62595
  79                   -0.04761   8.91376
  80                   -0.04807   9.19734
  81                   -0.04833   9.50152
  82                   -0.04864   9.80109
  83                   -0.04884  10.11435
  84                   -0.04901  10.42576
  85                   -0.04917  10.73478
  86                   -0.04931  11.04635
  87                   -0.04941  11.35465
  88                   -0.04920  11.65850
  89                   -0.04861  11.95696
  90                   -0.04882  12.24364
  91                   -0.04960  12.47236
  92                   -0.04928  12.76760
  93                   -0.04954  13.04280
  94                   -0.04977  13.32571
  95                   -0.04985  13.61426
  96                   -0.04984  13.90505
  97                   -0.05003  14.18939
  98                   -0.04987  14.48963
  99                   -0.05005  14.76441
 100                   -0.05003  15.05631
 101                   -0.05020  15.33208
 --------------------------------------------------------------------------
 
 Total number of points:                  100
 Total number of gradient calculations:   100
 Total number of Hessian calculations:      0
 IRC-IRC-IRC-IRC-IRC-IRC-IRC-IRC-IRC-IRC-IRC-IRC-IRC-IRC-IRC-IRC-IRC-IRC
                          Input orientation:                          
 ---------------------------------------------------------------------
 Center     Atomic      Atomic             Coordinates (Angstroms)
 Number     Number       Type             X           Y           Z
 ---------------------------------------------------------------------
      1          6           0        1.504718    0.084046   -0.286227
      2          1           0        1.574653    0.162667   -1.368611
      3          6           0        2.079076    1.020260    0.469075
      4          1           0        2.620895    1.851046    0.033733
      5          1           0        2.042048    0.983294    1.558070
      6          6           0       -1.511321    0.077007    0.281426
      7          1           0       -1.598307    0.150884    1.360413
      8          6           0       -0.733250   -1.094418   -0.235146
      9          1           0       -1.202868   -2.027198    0.105828
     10          1           0       -0.769084   -1.108081   -1.331185
     11          6           0        0.733947   -1.088178    0.237674
     12          1           0        0.768070   -1.097312    1.333367
     13          1           0        1.206910   -2.020037   -0.100118
     14          6           0       -2.073487    1.022914   -0.467011
     15          1           0       -2.619035    1.856932   -0.034828
     16          1           0       -2.019503    0.990241   -1.554174
 ---------------------------------------------------------------------
                    Distance matrix (angstroms):
                    1          2          3          4          5
     1  C    0.000000
     2  H    1.087487   0.000000
     3  C    1.332991   2.089737   0.000000
     4  H    2.114359   2.431422   1.083188   0.000000
     5  H    2.121037   3.075280   1.090251   1.847068   0.000000
     6  C    3.069002   3.500457   3.716974   4.503751   3.882990
     7  H    3.513497   4.185139   3.882453   4.738385   3.739540
     8  C    2.529800   2.862066   3.588450   4.471951   3.903177
     9  H    3.455732   3.831984   4.493340   5.446755   4.658492
    10  H    2.771873   2.666328   3.985321   4.702275   4.541377
    11  C    1.497554   2.202623   2.511658   3.498743   2.783086
    12  H    2.135730   3.088496   2.636257   3.716830   2.449987
    13  H    2.133188   2.551177   3.213730   4.123416   3.530869
    14  C    3.703743   3.855105   4.256765   4.793096   4.586955
    15  H    4.495739   4.715563   4.798561   5.240381   5.002626
    16  H    3.853442   3.692868   4.570864   4.979531   5.116866
                    6          7          8          9         10
     6  C    0.000000
     7  H    1.085006   0.000000
     8  C    1.498159   2.201116   0.000000
     9  H    2.133930   2.544484   1.098582   0.000000
    10  H    2.134447   3.085013   1.096709   1.760099   0.000000
    11  C    2.529981   2.869709   1.541514   2.156478   2.172744
    12  H    2.771503   2.675531   2.171222   2.501227   3.076165
    13  H    3.454266   3.836052   2.153886   2.418573   2.500348
    14  C    1.330762   2.079835   2.516564   3.223244   2.643748
    15  H    2.120184   2.428824   3.508102   4.136638   3.727488
    16  H    2.112267   3.062148   2.782101   3.539412   2.452801
                   11         12         13         14         15
    11  C    0.000000
    12  H    1.096262   0.000000
    13  H    1.098253   1.760364   0.000000
    14  C    3.582594   3.976326   4.489451   0.000000
    15  H    4.471065   4.698085   5.447294   1.086274   0.000000
    16  H    3.887420   4.523974   4.646052   1.088993   1.849055
                   16
    16  H    0.000000
 Symmetry turned off by external request.
 Stoichiometry    C6H10
 Framework group  C1[X(C6H10)]
 Deg. of freedom    42
 Full point group                 C1      NOp   1
 Rotational constants (GHZ):           5.5080376           2.2656104           1.8167638

 **********************************************************************

            Population analysis using the SCF density.

 **********************************************************************

 Alpha  occ. eigenvalues --  -10.24687 -10.24658 -10.24426 -10.24350 -10.23251
 Alpha  occ. eigenvalues --  -10.23231  -0.83523  -0.78680  -0.73157  -0.64931
 Alpha  occ. eigenvalues --   -0.56977  -0.56563  -0.48232  -0.46958  -0.44246
 Alpha  occ. eigenvalues --   -0.44068  -0.40777  -0.37524  -0.36882  -0.34337
 Alpha  occ. eigenvalues --   -0.34037  -0.26082  -0.25918
 Alpha virt. eigenvalues --    0.03164   0.03496   0.12689   0.12792   0.14460
 Alpha virt. eigenvalues --    0.15956   0.16761   0.19208   0.19249   0.20288
 Alpha virt. eigenvalues --    0.21002   0.21463   0.24972   0.30521   0.32824
 Alpha virt. eigenvalues --    0.37904   0.39975   0.50291   0.50843   0.53509
 Alpha virt. eigenvalues --    0.55140   0.55249   0.60431   0.64140   0.65781
 Alpha virt. eigenvalues --    0.67627   0.68512   0.69659   0.69737   0.73506
 Alpha virt. eigenvalues --    0.77496   0.79350   0.83259   0.87743   0.88236
 Alpha virt. eigenvalues --    0.88369   0.90618   0.92205   0.93911   0.94862
 Alpha virt. eigenvalues --    0.96225   0.97669   1.00783   1.01267   1.11893
 Alpha virt. eigenvalues --    1.12718   1.18593   1.25369   1.35029   1.37816
 Alpha virt. eigenvalues --    1.41118   1.50089   1.50273   1.60949   1.63441
 Alpha virt. eigenvalues --    1.68389   1.72650   1.77593   1.87647   1.91449
 Alpha virt. eigenvalues --    1.91671   1.96691   2.00828   2.01023   2.03643
 Alpha virt. eigenvalues --    2.13800   2.18697   2.22614   2.23996   2.27610
 Alpha virt. eigenvalues --    2.33552   2.39163   2.45461   2.48738   2.53636
 Alpha virt. eigenvalues --    2.62142   2.63718   2.78976   2.82190   2.89712
 Alpha virt. eigenvalues --    2.92064   4.12102   4.19270   4.22576   4.40357
 Alpha virt. eigenvalues --    4.42719   4.54383
          Condensed to atoms (all electrons):
               1          2          3          4          5          6
     1  C    4.824128   0.375879   0.673983  -0.028664  -0.038397  -0.000075
     2  H    0.375879   0.560656  -0.043633  -0.006816   0.005219  -0.000397
     3  C    0.673983  -0.043633   5.052787   0.373550   0.376964   0.001709
     4  H   -0.028664  -0.006816   0.373550   0.529146  -0.037897  -0.000032
     5  H   -0.038397   0.005219   0.376964  -0.037897   0.537370   0.000023
     6  C   -0.000075  -0.000397   0.001709  -0.000032   0.000023   4.822946
     7  H   -0.000392   0.000030   0.000204   0.000001   0.000028   0.376182
     8  C   -0.053715  -0.001329  -0.001547  -0.000130   0.000185   0.388710
     9  H    0.005222  -0.000072  -0.000082   0.000003  -0.000009  -0.036750
    10  H   -0.005085   0.003410   0.000176   0.000004   0.000016  -0.042272
    11  C    0.388793  -0.053711  -0.038709   0.004626  -0.010396  -0.053946
    12  H   -0.042063   0.004751  -0.004497   0.000085   0.005995  -0.005040
    13  H   -0.036994  -0.001721   0.000771  -0.000187   0.000138   0.005261
    14  C    0.001831   0.000222  -0.000003   0.000023   0.000009   0.675349
    15  H   -0.000031   0.000001   0.000023  -0.000000   0.000000  -0.028259
    16  H    0.000024   0.000038   0.000010   0.000000   0.000000  -0.039227
               7          8          9         10         11         12
     1  C   -0.000392  -0.053715   0.005222  -0.005085   0.388793  -0.042063
     2  H    0.000030  -0.001329  -0.000072   0.003410  -0.053711   0.004751
     3  C    0.000204  -0.001547  -0.000082   0.000176  -0.038709  -0.004497
     4  H    0.000001  -0.000130   0.000003   0.000004   0.004626   0.000085
     5  H    0.000028   0.000185  -0.000009   0.000016  -0.010396   0.005995
     6  C    0.376182   0.388710  -0.036750  -0.042272  -0.053946  -0.005040
     7  H    0.562084  -0.053754  -0.001908   0.004815  -0.001302   0.003367
     8  C   -0.053754   5.141214   0.373133   0.378089   0.326774  -0.037621
     9  H   -0.001908   0.373133   0.559575  -0.031531  -0.039331  -0.002746
    10  H    0.004815   0.378089  -0.031531   0.555652  -0.037581   0.004876
    11  C   -0.001302   0.326774  -0.039331  -0.037581   5.139827   0.378423
    12  H    0.003367  -0.037621  -0.002746   0.004876   0.378423   0.554750
    13  H   -0.000076  -0.039665  -0.002993  -0.002781   0.373029  -0.031385
    14  C   -0.044606  -0.038341   0.000930  -0.004497  -0.001741   0.000173
    15  H   -0.006968   0.004549  -0.000181   0.000071  -0.000126   0.000003
    16  H    0.005420  -0.010449   0.000126   0.006124   0.000180   0.000017
              13         14         15         16
     1  C   -0.036994   0.001831  -0.000031   0.000024
     2  H   -0.001721   0.000222   0.000001   0.000038
     3  C    0.000771  -0.000003   0.000023   0.000010
     4  H   -0.000187   0.000023  -0.000000   0.000000
     5  H    0.000138   0.000009   0.000000   0.000000
     6  C    0.005261   0.675349  -0.028259  -0.039227
     7  H   -0.000076  -0.044606  -0.006968   0.005420
     8  C   -0.039665  -0.038341   0.004549  -0.010449
     9  H   -0.002993   0.000930  -0.000181   0.000126
    10  H   -0.002781  -0.004497   0.000071   0.006124
    11  C    0.373029  -0.001741  -0.000126   0.000180
    12  H   -0.031385   0.000173   0.000003   0.000017
    13  H    0.559936  -0.000076   0.000003  -0.000009
    14  C   -0.000076   5.051520   0.373500   0.376939
    15  H    0.000003   0.373500   0.528759  -0.037842
    16  H   -0.000009   0.376939  -0.037842   0.538852
 Mulliken charges:
               1
     1  C   -0.064443
     2  H    0.157473
     3  C   -0.391706
     4  H    0.166289
     5  H    0.160750
     6  C   -0.064181
     7  H    0.156876
     8  C   -0.376102
     9  H    0.176614
    10  H    0.170515
    11  C   -0.374809
    12  H    0.170912
    13  H    0.176747
    14  C   -0.391231
    15  H    0.166498
    16  H    0.159797
 Sum of Mulliken charges =  -0.00000
 Mulliken charges with hydrogens summed into heavy atoms:
               1
     1  C    0.093030
     3  C   -0.064666
     6  C    0.092695
     8  C   -0.028973
    11  C   -0.027150
    14  C   -0.064937
 APT charges:
               1
     1  C   -0.663876
     2  H    0.397580
     3  C   -0.694257
     4  H    0.598410
     5  H    0.401235
     6  C   -0.665583
     7  H    0.400213
     8  C   -0.922163
     9  H    0.504410
    10  H    0.378122
    11  C   -0.919792
    12  H    0.377818
    13  H    0.503394
    14  C   -0.690131
    15  H    0.602183
    16  H    0.392439
 Sum of APT charges =  -0.00000
 APT charges with hydrogens summed into heavy atoms:
               1
     1  C   -0.266297
     3  C    0.305388
     6  C   -0.265370
     8  C   -0.039631
    11  C   -0.038580
    14  C    0.304491
 Electronic spatial extent (au):  <R**2>=            724.3459
 Charge=             -0.0000 electrons
 Dipole moment (field-independent basis, Debye):
    X=              0.0063    Y=             -0.4291    Z=              0.0027  Tot=              0.4291
 Quadrupole moment (field-independent basis, Debye-Ang):
   XX=            -40.4617   YY=            -36.9247   ZZ=            -35.3439
   XY=             -0.0034   XZ=             -0.4816   YZ=             -0.0101
 Traceless Quadrupole moment (field-independent basis, Debye-Ang):
   XX=             -2.8849   YY=              0.6521   ZZ=              2.2329
   XY=             -0.0034   XZ=             -0.4816   YZ=             -0.0101
 Octapole moment (field-independent basis, Debye-Ang**2):
  XXX=              0.0095  YYY=             -0.9548  ZZZ=              0.0185  XYY=             -0.0653
  XXY=              6.8277  XXZ=              0.1727  XZZ=              0.0883  YZZ=              0.8013
  YYZ=             -0.0041  XYZ=              0.5511
 Hexadecapole moment (field-independent basis, Debye-Ang**3):
 XXXX=           -661.6354 YYYY=           -256.3522 ZZZZ=           -103.1963 XXXY=             -0.3025
 XXXZ=            -37.1436 YYYX=             -0.4045 YYYZ=              0.0602 ZZZX=            -28.6233
 ZZZY=              0.1145 XXYY=           -130.0919 XXZZ=           -115.9460 YYZZ=            -63.0713
 XXYZ=              0.1222 YYXZ=            -12.3659 ZZXY=              0.0081
 N-N= 2.185406637786D+02 E-N=-9.792155617921D+02  KE= 2.323037233026D+02
  Exact polarizability:   0.000   0.000   0.000   0.000   0.000   0.000
 Approx polarizability:  66.667   0.084  92.616  10.195  -0.048  86.710

 This type of calculation cannot be archived.


 THEREFORE SHALL EVIL COME UPON THEE...
 THOU SHALT NOT KNOW FROM WHENCE IT RISETH...
 AND MISCHIEF SHALL FALL UPON THEE...
 THOU SHALT NOT BE ABLE TO PUT IT OFF...
 AND DESOLATION SHALL COME UPON THEE SUDDENLY...
 WHICH THOU SHALT NOT KNOW...

                                         ISAIAH 47.11
 Job cpu time:       0 days  2 hours 33 minutes 25.1 seconds.
 Elapsed time:       0 days  0 hours 19 minutes 37.6 seconds.
 File lengths (MBytes):  RWF=     27 Int=      0 D2E=      0 Chk=     67 Scr=      2
 Normal termination of Gaussian 16 at Thu Jun 16 10:05:02 2022.
